# vtk DataFile Version 4.0
Generated by LIGGGHTS
ASCII
DATASET POLYDATA
POINTS 67235 float
0.000996818 0.00110287 0.000998678 0.00299034 0.000986792 0.00099168 0.00310044 0.00449842 0.0009951 
0.00436846 0.00794134 0.00169725 0.00507951 0.00621588 0.00099566 0.00103455 0.00690979 0.00099979 
0.00616099 0.00849164 0.00100595 0.00603972 0.00275609 0.000993977 0.00200971 0.00282545 0.000997693 
0.00695015 0.00453268 0.00099662 0.00400453 0.00270713 0.000999547 0.00106083 0.000994081 0.00299161 
0.00100027 0.00491006 0.00099979 0.00689534 0.000993505 0.00135156 0.00244585 0.00846021 0.000991747 
0.00310881 0.0065607 0.000996113 0.00490869 0.000997329 0.00154198 0.00592872 0.00754827 0.0028782 
0.00099202 0.00848748 0.00247412 0.000993378 0.00296675 0.00270872 0.00498859 0.00432688 0.00162465 
0.00244286 0.00553264 0.00256867 0.00274512 0.00201662 0.00267157 0.0050338 0.00261057 0.00271017 
0.000990871 0.00471736 0.00366009 0.00610561 0.00099403 0.00318334 0.00622842 0.00560987 0.00251162 
0.00645438 0.0063179 0.0043595 0.00499757 0.0047159 0.00381373 0.00429674 0.00630144 0.00283089 
0.00194816 0.00826097 0.00439097 0.00270741 0.00750139 0.00271105 0.00348351 0.00385603 0.00284217 
0.00722239 0.0025317 0.00258401 0.00416289 0.000993948 0.00362422 0.000996269 0.0066835 0.00332603 
0.00598543 0.00252579 0.00446119 0.00375654 0.00885575 0.00372151 0.00690008 0.00413654 0.00371966 
0.0009886 0.000988272 0.00498629 0.00720436 0.000994377 0.00484695 0.00199055 0.00261211 0.00441487 
0.00275314 0.00643409 0.00438959 0.00701872 0.00668688 0.00101629 0.00400769 0.00280361 0.00445685 
0.00273799 0.00445205 0.0045865 0.00543762 0.00837787 0.00467968 0.00739108 0.00801201 0.00483042 
0.00461428 0.00650673 0.00508642 0.0137536 0.0041776 0.000998329 0.0153363 0.00296506 0.000992976 
0.00830213 0.00306003 0.000995391 0.00934297 0.00276802 0.00276952 0.00977169 0.00441524 0.000995505 
0.0104656 0.00896577 0.000999401 0.0123836 0.00824757 0.00102385 0.0113634 0.00830298 0.00274207 
0.010823 0.00700264 0.000994876 0.0102071 0.00246781 0.000995807 0.0143824 0.00794056 0.000995347 
0.00896796 0.00625949 0.000998297 0.0121151 0.00304324 0.000994601 0.0134933 0.0061545 0.000996824 
0.0117783 0.00503902 0.00099979 0.0132818 0.00490547 0.00279464 0.0136946 0.00182278 0.000997659 
0.00885614 0.000998718 0.000996625 0.0103403 0.000990109 0.00232597 0.014716 0.00333449 0.00284676 
0.0118317 0.00106456 0.000997984 0.00836196 0.00446892 0.00240534 0.00803034 0.00636825 0.00290949 
0.00776002 0.00834249 0.00290511 0.00844189 0.000995538 0.00295136 0.0102632 0.00572232 0.00241816 
0.0127619 0.00297802 0.00287659 0.0121288 0.00648951 0.00241165 0.0140592 0.0069907 0.00272039 
0.00953535 0.0075828 0.00240393 0.0097469 0.000999042 0.0044633 0.0141724 0.00634016 0.00460287 
0.0110929 0.00224601 0.00367026 0.0144471 0.00099619 0.00264992 0.0110037 0.00382738 0.00245223 
0.0141578 0.00433402 0.00449518 0.015239 0.00525631 0.0029647 0.011583 0.00517288 0.0038059 
0.00813139 0.00269348 0.00435232 0.00972753 0.00444504 0.00385775 0.0124633 0.000999434 0.00289089 
0.0126474 0.00750547 0.00404814 0.00961319 0.00655663 0.0041097 0.0152698 0.00863091 0.00263951 
0.0144318 0.0083101 0.00442513 0.0122296 0.00350229 0.00472694 0.0104306 0.00833001 0.00450663 
0.0132872 0.0088343 0.00270614 0.014073 0.00112679 0.00460672 0.00815296 0.00533962 0.00469331 
0.00828801 0.00823031 0.000991854 0.0158774 0.00193881 0.00367329 0.0155384 0.00507192 0.00099779 
0.0156303 0.00099435 0.00104038 0.0120971 0.000994031 0.00485358 0.00994878 0.00293589 0.00514078 
0.0158831 0.00701946 0.00363823 0.0159788 0.00690723 0.00164674 0.0160722 0.00384959 0.00420667 
0.0172493 0.00240088 0.000997096 0.0200581 0.00287975 0.000995158 0.0230277 0.00453639 0.000998929 
0.0171747 0.00572819 0.0028323 0.016397 0.00874776 0.000996633 0.0175544 0.00505554 0.000994624 
0.0184923 0.00360301 0.00198878 0.0203692 0.00909252 0.000995141 0.0220495 0.00279544 0.000997588 
0.0213165 0.00580382 0.000995668 0.0219255 0.00770478 0.000996569 0.0183737 0.00902821 0.000999371 
0.0178652 0.00702722 0.000996244 0.0207099 0.000993414 0.000995676 0.0225852 0.000998011 0.00168246 
0.0230467 0.00265658 0.00271952 0.0198572 0.00716589 0.000999043 0.0165418 0.0039081 0.00227217 
0.0173093 0.00803539 0.00262324 0.0176313 0.00663198 0.00455149 0.01709 0.000995222 0.00240261 
0.0194654 0.00528135 0.00152462 0.0188757 0.00679898 0.00270385 0.0199833 0.00272512 0.00298419 
0.0211592 0.00691371 0.00266412 0.0210272 0.00419726 0.00213963 0.0230061 0.00630704 0.00192557 
0.0189137 0.00493522 0.00341221 0.0190035 0.000991968 0.00296556 0.0187126 0.00104419 0.00099582 
0.0193111 0.00347029 0.0047071 0.0216247 0.00332345 0.00394671 0.0208381 0.00529846 0.00379658 
0.0199345 0.00848426 0.00284069 0.0225452 0.00630322 0.00403943 0.0227832 0.00462656 0.00297969 
0.0230486 0.0081901 0.0036374 0.0210008 0.00100692 0.00296762 0.0184745 0.00840879 0.0042009 
0.0177183 0.00286182 0.00366749 0.0200221 0.007141 0.00430761 0.0237023 0.00211667 0.00452114 
0.0164518 0.00883408 0.00423506 0.0175658 0.000995028 0.00434872 0.0220656 0.000991206 0.00465255 
0.0177143 0.00465628 0.00498136 0.0194846 0.000994489 0.00489965 0.0241886 0.000996904 0.00287168 
0.0159785 0.00563993 0.00507136 0.0228411 0.0045994 0.00503733 0.0217784 0.00910755 0.00240458 
0.0240422 0.00267577 0.000994657 0.00531996 0.00943133 0.00262446 0.000998768 0.0100041 0.0037756 
0.00409676 0.0139841 0.000995842 0.00142658 0.0127967 0.000996426 0.00396067 0.00976103 0.000998443 
0.00582626 0.010461 0.000993278 0.0067678 0.00970227 0.00397067 0.000994242 0.0098296 0.000997677 
0.00250315 0.00978644 0.00247867 0.00251004 0.0111251 0.00099731 0.00463661 0.0120634 0.000998493 
0.000997714 0.0147414 0.000995156 0.00132461 0.0186976 0.000995041 0.00328342 0.0161405 0.000999773 
0.000993855 0.0113456 0.00229396 0.00101667 0.0177163 0.0027319 0.00136409 0.0167032 0.00102181 
0.00286684 0.0179901 0.00203953 0.0064654 0.0154317 0.00252195 0.00443375 0.0186516 0.000995284 
0.00528058 0.0160383 0.000998035 0.00623265 0.0177946 0.000997252 0.00604892 0.0112811 0.00279635 
0.00408231 0.0109988 0.0025935 0.00662187 0.0122902 0.00100221 0.00309315 0.0126702 0.00211378 
0.00449989 0.0151061 0.00259355 0.00243962 0.0113884 0.00366327 0.00099271 0.0157262 0.00272445 
0.00596919 0.013276 0.00275216 0.0026073 0.0146068 0.00216888 0.0066107 0.0173854 0.00291175 
0.00467401 0.0172589 0.00245463 0.00300363 0.0163163 0.00311712 0.00244939 0.0189157 0.00377543 
0.000996917 0.0135944 0.00277488 0.00475105 0.012276 0.00397345 0.00567499 0.0186303 0.00415692 
0.00203669 0.0149764 0.00424202 0.0016519 0.0169235 0.00445095 0.00540653 0.0162374 0.0040072 
0.00392796 0.017666 0.00426079 0.00492177 0.010333 0.00438124 0.00301779 0.0132605 0.00401693 
0.00401016 0.0149141 0.00451834 0.00608114 0.0142101 0.000994778 0.00671651 0.0121726 0.00444831 
0.00568658 0.0138541 0.00475518 0.000995899 0.0132392 0.00473832 0.000994148 0.0186852 0.00511597 
0.00275349 0.00997324 0.00503132 0.004223 0.0191735 0.00290624 0.00747348 0.0162348 0.00099579 
0.00739735 0.0142032 0.00379113 0.00760203 0.00994919 0.00173623 0.00877967 0.0094176 0.00424208 
0.0110189 0.0100492 0.00369258 0.0116646 0.0118707 0.00265872 0.0149932 0.0101482 0.00390452 
0.00848624 0.0115779 0.000997334 0.0118915 0.0100336 0.00190371 0.00946986 0.00992827 0.00243913 
0.0136451 0.00979532 0.000993846 0.0127719 0.011608 0.00099979 0.0103823 0.0109605 0.000994076 
0.00807681 0.014332 0.000998204 0.0140918 0.0126505 0.00217297 0.0109576 0.0128711 0.000996883 
0.0137772 0.017997 0.00099813 0.0128101 0.013617 0.000994582 0.0093952 0.0181314 0.000990456 
0.00965647 0.0138715 0.00213023 0.0141747 0.0166335 0.00239955 0.0117808 0.0179977 0.000997988 
0.0132542 0.0155629 0.000993613 0.00947586 0.016134 0.000998435 0.00793002 0.0129005 0.00238133 
0.00966734 0.0119256 0.00258554 0.00798373 0.011129 0.00329795 0.013541 0.0108136 0.00270965 
0.00857386 0.0176492 0.00273696 0.00844012 0.0156619 0.00264044 0.0113273 0.0150365 0.000996339 
0.0105586 0.0177239 0.00255207 0.0116368 0.0138684 0.00258502 0.0104325 0.015628 0.00267741 
0.0135217 0.0145298 0.00268025 0.0150355 0.0133402 0.00379167 0.0153628 0.0151852 0.00309558 
0.0121606 0.0165554 0.00232891 0.00938975 0.0187569 0.00417543 0.0148549 0.0184802 0.00274471 
0.0157674 0.0181748 0.000996026 0.0147152 0.0142102 0.00110127 0.015697 0.011654 0.00280579 
0.0157171 0.0124884 0.000994221 0.0128953 0.00988764 0.00435603 0.00988263 0.0112582 0.00479538 
0.0129542 0.0129642 0.00378096 0.0075488 0.018088 0.00457219 0.0114626 0.0149518 0.00424694 
0.00740307 0.0161233 0.00430681 0.0130727 0.0179246 0.00345176 0.00943739 0.0165353 0.00414931 
0.0113929 0.016944 0.00418121 0.0105928 0.0129565 0.00401886 0.0147361 0.0171662 0.00424482 
0.0154924 0.0105162 0.0011785 0.0121646 0.0191557 0.00472618 0.00863117 0.0127252 0.00430147 
0.0131399 0.0159986 0.00397928 0.00938621 0.0145459 0.00398928 0.011859 0.0115622 0.00468426 
0.00768525 0.0191613 0.000998459 0.0158027 0.0187629 0.00478179 0.0142224 0.0117707 0.00475857 
0.0148614 0.0153341 0.0050244 0.0231803 0.00926534 0.000996126 0.0187358 0.0100683 0.00267795 
0.0214802 0.00930467 0.00436534 0.0184561 0.0125938 0.000997136 0.0215851 0.0145611 0.000996222 
0.0167484 0.00996889 0.00262726 0.0233018 0.0111634 0.00159072 0.0214417 0.0107723 0.000997045 
0.0194479 0.0108622 0.000994822 0.0211986 0.0109251 0.00298406 0.0231037 0.0102552 0.00335667 
0.0168512 0.0187321 0.00308753 0.0228627 0.0130178 0.000998663 0.0174509 0.0108674 0.000993968 
0.0185326 0.013779 0.00259834 0.0205191 0.0139678 0.00257725 0.0174692 0.01433 0.000997159 
0.0160264 0.0157066 0.000994436 0.0194536 0.0145303 0.000993659 0.0177672 0.0182003 0.000999802 
0.0189414 0.0190251 0.0028068 0.0202282 0.0184081 0.00099684 0.0181259 0.016223 0.00099944 
0.0222797 0.0166336 0.00099741 0.0212732 0.0158135 0.00251257 0.020116 0.0164142 0.000999045 
[...]
POINT_DATA 67235
FIELD FieldData 3
id 1 67235 int
62898 52285 48462 51519 59809 57971 52968 58911 59196 
52168 64477 45162 30441 30794 30556 49743 39916 50978 
40040 13720 45616 41323 52772 51434 29042 49633 62075 
21050 23496 39989 49353 30923 30469 59287 29651 21106 
41665 56431 55199 10977 39802 52544 29587 59539 67016 
29551 59976 64944 52124 63388 13824 48794 23249 13988 
49834 51169 30618 48796 49489 58221 40041 40133 49638 
29363 66280 59889 40383 42700 49756 58452 20542 29145 
29929 40233 40772 55619 44849 51385 49288 20625 51058 
40232 42594 10891 44766 40744 50148 39248 62492 39325 
63965 67131 13433 41709 39154 56088 40368 29972 51409 
40804 60913 59812 38533 62362 10368 49636 51248 48880 
58394 29174 49542 45354 41931 57117 32520 59648 39523 
30877 40738 49923 29805 42048 51805 46293 32129 13096 
57992 59436 43681 39731 13974 59747 64966 42060 58168 
55572 32513 57475 50121 52598 29647 20590 44334 60737 
58760 53725 60822 52125 39810 64056 48765 50883 41740 
39339 56522 56683 64658 55584 52272 10959 20607 30033 
62333 21055 49969 13291 30015 30178 49292 20487 42747 
55441 59573 21025 20386 11394 21195 61177 59369 64168 
43532 29596 20567 32154 48466 50278 59435 59489 49695 
42029 20656 46253 47003 44945 39300 30147 40062 58246 
39796 21295 38610 45203 39913 23151 57919 32661 58003 
52382 44648 49754 59231 60399 39535 20746 49780 20078 
49306 43879 48402 29166 21270 48774 45046 53886 63972 
54467 54239 64088 59194 42181 39543 39988 51543 44825 
45092 44770 3737 45333 60692 55165 55176 49368 43742 
32399 55161 58428 44291 42214 39614 22993 55091 45683 
53615 49761 48271 39279 45681 45371 50464 39336 66869 
58589 21046 51326 55557 64793 58357 40275 54872 51102 
57846 54442 49177 49459 56069 42246 40679 49983 64679 
64782 65292 59424 30526 58691 50594 52234 67251 49191 
49576 22628 59422 57839 39409 39936 65052 52099 59734 
61317 432 59608 54968 60885 30274 50722 55370 39109 
58747 61657 55357 54397 65532 39086 49681 22983 40324 
60045 21167 50694 30136 48157 46328 51399 60244 60323 
44090 29696 66083 51771 66561 55492 39488 67195 48478 
54993 54607 20142 58663 19513 61338 29614 19615 44368 
42196 29073 30314 48835 63894 38594 64411 52073 51442 
20109 30520 54507 59049 49403 49936 11349 53576 20845 
40150 29845 20849 52195 20208 42053 51845 20397 49810 
45351 50052 51437 29366 61540 44996 20242 58750 20899 
22866 10144 30198 10197 62528 50035 21206 38783 64855 
20400 45923 10190 49601 30694 53008 60690 20442 39773 
55248 49996 20041 58596 44063 55607 48744 31029 60555 
42599 29859 43963 51962 50911 23241 59053 11547 65037 
30603 29593 38975 58944 52731 63340 54856 46149 44693 
22537 59112 30395 58426 59190 58575 62264 49303 29982 
52395 60707 34298 51607 43871 11401 58249 39111 29440 
62868 61006 42125 59393 66853 41959 38633 51174 29888 
39192 59474 20832 19525 51652 708 39979 61720 49848 
29379 49598 53437 29011 450 49025 45659 61473 29659 
51481 43800 51964 29699 61244 44636 48497 55168 29906 
44321 39232 56494 51533 44656 49118 64871 14226 44554 
29771 56273 59765 44406 39415 20565 39348 29667 44159 
64209 55402 44165 38650 58662 49199 55137 51332 51967 
49016 49258 60782 46984 49229 45513 51616 19623 20713 
61300 11145 64809 61111 48689 39939 54911 61353 42188 
30166 49948 54629 58530 45782 54684 43957 43960 23330 
40317 48602 46765 62533 58949 55162 58074 57314 32477 
48440 52847 21745 44532 51848 40197 32505 32546 48324 
59902 48913 45241 55267 48661 49799 29241 29616 45820 
46905 21833 21072 10922 55791 39715 45456 59182 39736 
19505 56928 20549 59729 20560 30081 43929 30070 47330 
29098 29358 47059 52914 52374 44581 30122 39504 29306 
52996 21726 50870 30170 10967 55124 54918 58791 30137 
39970 49702 19678 10814 51530 48786 22823 9903 29097 
23040 49389 50098 29702 50083 49393 19478 39115 51820 
39373 40015 59270 49021 58631 29407 43663 57730 63580 
50129 22992 54128 52328 42792 21410 39411 49618 58882 
48700 54835 45576 30857 51369 55567 57657 55271 49167 
40476 49011 53996 14068 30681 58580 32162 51029 55546 
39681 20884 41917 49563 58413 52925 40420 48135 44179 
40329 29367 44152 54855 20094 30093 39670 43499 62501 
59068 39605 30840 21305 54924 65560 46443 62411 51904 
58460 20470 52016 41739 50205 30008 23190 20229 48801 
44457 58826 38973 39579 30192 49399 43931 56432 29342 
11656 30155 52227 49514 55038 48890 50141 61193 52753 
38734 30708 52885 58738 62363 61232 64706 3236 21012 
51078 48491 22969 57744 44318 57212 57963 39364 58563 
50761 48577 51777 41645 39828 45947 66784 58840 38725 
54468 23467 55536 1034 44250 55055 49131 53935 65093 
51668 51495 30305 60933 52510 54813 38982 39169 52245 
39928 50958 29837 63678 58372 61272 57877 54522 38768 
62524 55150 30107 58983 44800 49516 57880 51364 21120 
64153 48854 58081 57916 42152 10620 32334 40072 58375 
29613 49461 59005 59894 32180 29201 52074 62366 21160 
21505 49036 30564 45472 49408 29066 40369 13037 52327 
49785 39689 29797 30426 29570 44417 19495 619 38896 
59609 20025 55296 2370 21029 42558 50642 38818 61069 
45429 29943 62526 29685 58324 57680 39475 22884 30977 
44961 51322 49533 39863 19550 14090 49172 61696 62004 
31761 41524 54975 14315 39526 43862 65588 59893 60060 
10105 66209 49115 10255 52050 38531 52306 51809 40054 
44872 49181 40400 40345 57939 21243 48908 65935 42908 
55290 1377 45079 49111 61987 59331 19930 61442 39432 
30217 39177 42739 39574 10917 30597 49845 41539 51127 
32296 20521 58122 58864 20116 43797 22559 60402 44777 
49551 30100 39938 58676 55333 59619 49042 30223 41458 
62478 49424 60445 29800 45315 55464 49647 63352 58715 
29719 30002 60523 53317 58115 54533 48879 60426 13713 
53677 23542 43876 58788 62481 53750 54943 31928 46570 
44659 54160 49982 42175 42275 44409 63976 65317 58140 
22260 46839 40169 44183 62241 39408 67084 53630 48777 
46184 39400 13495 49723 57823 61059 59792 19669 39937 
40432 61678 20298 39160 49122 21086 29053 20643 10571 
13531 20655 10029 22796 45885 32378 39188 61557 60774 
39666 39550 60709 62193 49450 42019 29889 51508 40181 
31340 29519 10064 45578 41997 30358 54740 48180 66512 
40304 39464 20963 20287 20139 58431 45233 66984 39476 
164 59090 52012 29049 32358 29986 46012 41426 30335 
52275 49220 42138 49549 64901 59984 62744 48905 59395 
29811 38602 54639 54557 20309 57160 29357 51147 52019 
50988 57756 51903 44257 13190 44140 51229 32616 58186 
51703 10868 55821 58669 42577 58964 56527 49562 23112 
158 39735 51972 65892 54948 57737 53643 55686 54754 
29788 32588 42233 20960 21501 64190 21064 40179 14221 
13493 39942 29162 23150 49976 20310 20459 59700 21185 
51625 49086 22784 29395 29322 20236 59767 39706 19482 
62499 48874 52494 10687 50691 10534 1146 52277 39314 
19929 414 29747 44328 32056 38648 49968 20049 59225 
50934 60624 29214 42080 29486 11652 10811 20371 49378 
45161 49889 49648 43887 39742 39387 52496 48242 49274 
19736 47760 21334 42578 10862 11037 67175 30660 39268 
49577 30189 49316 39361 53656 10600 41597 39315 49481 
54556 39651 49211 29195 39228 51112 19926 39571 10972 
50931 53843 30045 42260 52329 40385 55570 41748 39145 
29087 57791 42017 40334 41079 39656 39295 19697 19812 
30218 62597 19825 39687 42779 48488 52634 49558 55342 
50436 65980 49342 42497 50893 29231 20017 177 29278 
12935 65258 13224 56198 29955 29164 41131 24949 57066 
48339 65055 32177 51135 29781 50025 49329 62547 48803 
22987 29751 51261 41857 49372 58577 62561 29656 39328 
41791 39658 20060 20090 22499 22751 21306 29678 20171 
63386 22204 58368 39271 21224 30657 58498 59592 52376 
31215 21001 49588 30052 61963 49650 52110 22632 11400 
52461 20767 66372 25682 20262 21230 11716 20013 22802 
3906 39319 30203 4342 20844 19964 39548 41950 10768 
39283 40203 49373 41775 39513 14029 41723 42283 19414 
56876 38964 38871 30176 59101 44395 29796 32342 48760 
62559 51292 48251 59947 58333 67296 41096 42772 53009 
39235 31202 39157 39174 19846 213 58473 39307 53878 
58661 59198 45790 41760 20612 39418 39399 20449 22763 
54214 55493 13144 66270 20994 64058 42842 59709 66539 
43591 48711 29764 48642 54647 54879 64957 42093 40174 
22014 66540 13124 32027 40251 49125 20527 32647 52480 
42052 48966 29501 48178 30071 41932 53370 56553 44289 
64825 56608 61732 51046 41060 20212 49024 50610 54043 
45409 20152 55406 47004 48355 44133 45384 29962 54747 
53755 53413 41541 51319 62586 52358 61510 59574 49503 
52291 49339 59782 51203 30510 40730 29184 40323 40013 
29662 38785 770 20914 52744 21657 30068 10841 21414 
62077 59756 52638 64995 30182 20370 62381 20021 30788 
10519 48898 292 10273 44689 58383 29880 19655 19960 
49264 59429 20718 10191 50795 22816 10490 21336 22681 
51158 45078 54863 20406 50618 396 44845 51123 62573 
65011 47451 20614 56302 49741 51202 29198 52505 41478 
29131 61148 39137 20093 41510 41277 42306 56425 29356 
19718 39136 57401 41569 22498 58745 38553 51211 20949 
45259 38535 29335 52331 29111 56893 39331 52697 66686 
62584 39873 54329 40127 50503 54682 38525 11738 39719 
53971 51037 52090 32339 49310 20518 40067 29346 50716 
13005 19762 48428 31586 53307 65302 45072 58841 50532 
30535 51088 57067 24602 869 60437 48239 13384 44487 
39565 48739 29027 20755 23297 49651 39954 40790 49603 
31144 21255 44141 49293 10610 20695 63170 65235 10741 
50153 10721 20582 59304 11033 30154 46163 13537 63345 
19865 22566 1122 48981 59327 39709 50144 11947 20221 
44611 11125 439 43220 14227 20496 56862 29713 51228 
59340 55335 38881 44150 39770 20243 51876 29258 47837 
39102 29141 50589 20329 51709 10572 29654 55556 19742 
58261 12502 39728 61883 29263 66963 12446 51718 24550 
30509 61580 41214 676 28996 51468 21258 10145 50701 
64972 45059 41444 57337 51511 30781 57914 20674 31768 
49341 50881 66806 48158 53493 60258 60711 41560 61659 
31399 64553 47190 58087 51065 62926 32292 54198 61322 
175 56638 32000 56215 53247 31788 66309 56266 54190 
55015 42129 53693 60521 56576 22151 20631 54474 56120 
38979 45243 65502 62805 50787 50359 65981 20042 29586 
31638 38674 39534 11699 20633 43911 50395 29631 20404 
29287 49347 28999 20074 59688 30437 4530 50156 21337 
10254 45528 20111 59843 11617 39868 49919 31175 19756 
20063 49693 29877 29271 20654 50186 41001 39068 49543 
499 30768 10247 58427 20728 19877 58931 11053 49599 
51517 50757 49668 29609 49455 20423 20055 30935 19845 
10861 52029 10322 38822 21041 50259 11517 41886 52145 
59207 38683 41324 50959 44680 63265 44844 54573 60467 
21324 41960 51852 11247 40644 50494 55292 30883 48464 
59192 29281 21712 42046 29103 19551 38791 41387 20000 
1322 30846 49614 39966 51551 45695 43979 29822 39121 
55337 42278 19772 49138 42949 58857 30845 62560 50184 
29224 20334 48206 10921 19570 20324 22422 29823 52118 
45082 38672 50320 21181 19924 677 39134 10734 62248 
41830 30260 48710 50565 19485 20084 52848 48719 51541 
38670 29549 20308 56748 54458 20467 48952 62226 56213 
60211 64092 20447 54238 31451 53596 57865 51688 41673 
59518 1307 646 10270 62964 1278 47047 53396 55745 
30191 42935 51637 65163 38810 45552 30265 29728 38680 
20249 44669 51574 12293 48459 43901 57967 20134 20148 
686 51528 50213 19703 12907 29318 13173 49690 20817 
13678 43686 30421 62516 11124 20136 50991 40641 10740 
30209 1546 19504 20216 10602 45074 59154 13029 30230 
14065 13479 13273 61627 61731 39353 2272 30187 52251 
39918 10085 10993 41030 48192 11450 4443 891 29293 
58741 30677 29065 13132 20616 29126 773 29555 20708 
21421 30529 3668 29990 29308 498 23132 3997 52983 
10122 19707 38929 23274 11062 11019 20575 22439 39194 
12080 58539 19864 32524 10664 444 42281 10870 50644 
41642 4079 31350 58845 41364 29544 10076 42208 12126 
21276 23138 59069 53651 20427 263 29269 55541 20193 
20064 41691 32023 66064 45330 29892 31843 48768 41264 
51555 38574 64349 55224 14237 51179 31577 13978 13259 
50733 30324 30031 22397 48787 11405 50835 29556 15006 
42521 39679 58382 48312 10765 39474 20350 38578 12383 
40954 60362 39040 48048 38692 30193 31795 38645 45971 
45325 50331 49359 51739 29874 51888 11001 10915 55025 
52055 10869 13707 48897 58247 22638 54985 29967 58938 
21114 1151 10783 2411 59851 63609 29918 20146 11123 
23107 47806 11976 30496 11353 62350 19503 58889 40698 
10111 12133 60810 30733 764 48421 50340 20258 40310 
29739 2468 59438 21253 57630 21735 41640 20177 13481 
30440 58182 11254 40844 21371 40502 1138 10550 40394 
42756 48435 20481 39187 30083 21242 10604 50155 29526 
14254 58585 29741 19486 20659 19847 20967 52420 52792 
51901 51859 11263 48986 12226 11959 39744 62276 40048 
39340 29021 30381 1470 30521 1296 1133 49730 51057 
50478 52281 39045 19870 45357 38707 19562 38755 19753 
10438 38823 1417 62480 12135 3650 9950 58550 22131 
55274 30515 11596 62300 39908 52718 21165 29152 29625 
349 29806 52803 20594 29652 45140 54640 10073 57653 
29223 60476 12720 22354 63180 30139 57506 30632 30842 
38872 30638 41003 56580 38706 10336 19501 494 29497 
32043 19939 57668 48733 58054 54237 9916 10582 190 
50571 19564 58228 9883 29923 29261 29485 19801 20608 
10580 40138 21264 3231 11414 40518 48999 3753 11154 
21622 1298 46954 39358 20087 20180 11099 10091 50196 
19586 20733 20207 31113 29146 43272 2060 625 20916 
49733 38617 20100 48702 10042 979 62293 29008 29915 
11073 19993 49773 39256 49632 1205 30004 29934 20183 
3605 32761 61746 22642 14220 13395 20250 20388 31014 
41504 10561 41288 767 19479 59417 51427 29668 38839 
41632 38885 41982 53457 19581 12445 39027 9871 45745 
48624 50366 54598 31380 31556 41606 31910 12381 39117 
42134 21890 29128 45404 50905 41017 53679 20200 48328 
49367 42255 20038 51076 55182 14971 31585 20461 40969 
22167 41205 31830 24955 15410 42160 29347 38836 31541 
54577 48199 12895 50739 60917 29502 41428 41571 28977 
55747 31478 56888 39841 56716 20550 55122 49384 53286 
45199 49364 58440 20892 31315 30602 59935 63437 32567 
39696 12576 943 21184 39144 45025 60412 40312 49535 
31272 3110 52333 59416 20651 59847 30285 60471 11598 
50355 13581 11226 10505 20382 29032 38570 30803 29643 
32032 40750 10154 12234 20314 19906 30664 59933 52448 
20145 59697 23469 20629 2884 21633 10312 41667 2974 
10579 9888 2773 10075 58988 61603 10217 40327 13619 
54954 10567 11426 45111 20759 40723 11411 10942 30261 
29894 59346 39648 3155 20764 52322 29655 21668 49444 
30127 59391 50483 12957 21217 622 3536 49846 9917 
40242 20973 51398 10278 38657 1491 1550 30286 20834 
60794 20568 10776 3757 10815 40111 1583 58335 10348 
22890 10318 10973 13999 39976 56460 10546 10189 20854 
20347 30272 10176 20378 52737 39981 21143 41911 41595 
10174 50744 10406 20415 19424 61047 19940 10233 58136 
10520 29887 60613 52350 60960 40014 51406 29343 11412 
48860 49728 32559 9911 20593 20275 49457 29916 20912 
30346 11769 748 20597 3417 22795 10562 49564 19666 
30159 41443 786 10497 10234 51389 41143 41575 21128 
41128 12555 66619 11877 13158 10433 30142 20482 35388 
21528 13117 55050 160 65494 12820 20750 60072 571 
39466 20503 39977 38623 12904 29297 30554 52205 21481 
583 19515 40373 10736 59538 51094 10962 20672 38660 
29753 20390 19879 20598 21191 20214 52445 29040 9865 
11382 12725 31132 38681 58148 51266 30281 41518 34100 
55278 24884 31363 830 49107 31731 45825 1443 31810 
28984 48250 41882 11839 43902 53086 24500 1473 10417 
9934 19852 29235 29104 22130 19567 29580 10998 1020 
20901 19624 11000 12927 50502 959 38713 19593 38795 
10004 42074 10185 44784 1442 45275 845 29219 4085 
21059 49506 49985 30617 30519 40501 10450 30648 61149 
12461 30750 6247 49891 42872 39212 21754 11052 21690 
11200 50604 21661 40718 1243 13574 21609 522 61109 
1139 41283 40780 40277 13323 11616 35575 62337 48196 
57631 12180 39839 609 30725 21804 23166 22949 403 
20346 19690 12243 1424 21087 11420 12667 30880 11638 
11920 11234 19491 55517 52575 20451 20563 21353 55312 
38513 60226 21759 40164 19837 11205 39971 31347 11421 
10730 11982 12125 50255 50426 49607 11343 22874 9860 
12547 20222 21188 21026 58131 1353 1518 10663 21581 
39584 10314 64820 2702 31176 29083 20010 22251 12900 
19787 13316 20591 52246 34278 29534 21342 40380 260 
30992 38750 29313 29541 13480 12753 40703 22056 41955 
40322 30404 19453 50718 19516 29978 30502 30670 9890 
11603 11152 48423 20283 21639 42889 20103 22350 11402 
12849 2487 11305 30069 38518 10035 24943 20547 38724 
39882 39498 22942 39181 44112 800 11116 30739 29958 
13170 39788 13731 11867 19675 62398 660 41011 10060 
13504 11689 45406 42372 50266 579 36739 21350 1367 
12072 10510 20044 20748 10904 10771 50219 12074 11437 
28986 13856 40301 42911 33141 52794 1228 30376 19418 
22701 52339 45783 11195 1083 11585 10094 48767 30060 
38999 4753 14144 1861 22072 39081 725 25820 26897 
40688 10335 23441 11220 61798 40379 11695 9998 4395 
62488 21356 10259 3569 11961 9933 52939 21162 10089 
11720 29925 38805 30984 19714 29181 10297 49405 60300 
38814 38909 19966 50957 39033 44842 39469 899 39113 
25998 30344 10466 20369 10052 48262 30322 1181 43473 
59439 20847 319 31784 39100 25018 48123 12549 481 
48265 41233 9891 56579 10296 10015 39032 1836 1019 
40792 1414 23058 11725 1430 3341 51849 21297 12799 
20926 62507 62465 4083 11393 13776 3334 13086 11875 
12965 55334 10626 31297 40789 12142 11321 11533 49981 
13689 829 62245 805 30059 30235 55358 11577 61636 
4115 61107 59634 12095 35349 10865 2383 13147 13137 
3933 11516 38806 10555 58415 11115 23282 10583 59344 
51934 11286 33884 49326 13313 10506 2361 11567 22728 
32218 49079 635 11133 2244 931 39775 58339 21223 
20919 49338 1046 38915 10564 10939 11434 21413 10759 
21076 62013 21291 13728 59383 833 11589 19477 19693 
19791 50563 11748 10883 40032 42667 29920 62049 51114 
20927 50480 1241 43243 11787 30835 20441 14129 11828 
20957 11514 19709 12896 2867 11558 11303 30507 853 
48961 1264 44790 11505 51838 29099 3385 51760 57669 
532 62413 10457 12172 19910 10448 12856 11865 4886 
531 12055 10404 2003 940 19802 20835 53577 617 
33961 20619 19488 31465 1767 128 20181 12250 51893 
31333 48441 29442 11078 11466 19537 40025 1925 2129 
1028 12141 21697 12963 3600 21343 2595 31107 30865 
39906 214 40102 54699 61486 11032 59744 53011 30233 
14310 3875 14622 23158 29276 16454 791 14241 10858 
40279 21480 40163 12349 12355 39246 41670 33149 11250 
3581 40470 13661 1681 38666 41985 21477 11980 36317 
1952 1056 59753 11288 10864 11109 10071 4410 4540 
15194 3300 12157 14563 11006 39006 10473 718 13749 
59806 19428 19568 10607 19979 40585 19761 29315 20320 
11079 21051 43764 670 11098 11304 48379 41141 13040 
63225 10894 13024 1596 15642 31067 21231 11575 21498 
22611 11008 10995 13473 29107 59113 21673 23995 21054 
60015 29550 3360 4068 3815 50124 23436 3711 42499 
59535 12038 41898 53544 1315 20606 56555 15360 30431 
49767 50041 40882 10920 11425 12002 31984 3706 23247 
39968 1436 13798 11469 12197 11424 11468 11489 859 
1314 10723 40033 20712 20188 19687 12642 19768 40119 
12247 630 20689 52508 13250 38802 10980 10612 49903 
2038 21100 50294 21105 20677 40173 19706 41275 2685 
54472 13506 413 2178 11974 11278 21391 30967 38962 
30301 30786 20075 29240 22303 19462 30577 335 29521 
29474 21679 20433 14162 11251 40526 11308 11803 2646 
39804 10733 10112 11044 10652 10914 20805 12694 29868 
11614 559 31137 29429 2095 24025 11678 11682 337 
52059 20509 2843 1489 12597 33798 22025 10876 31680 
9892 11548 5726 11351 12385 14014 1789 12517 1906 
39097 19574 1924 38558 2604 20270 31807 12867 733 
10836 42388 10084 29479 39876 39889 21135 20644 3071 
50782 10674 50441 11310 11074 12567 29963 54724 21702 
4016 39510 11256 185 21805 23801 33487 2328 24511 
3980 49774 938 11773 293 1128 12203 10256 59596 
478 20080 38604 10098 39734 31085 20046 59967 523 
24428 3838 21575 20851 38845 38745 31818 22380 12784 
29420 12490 21187 13966 59223 29163 25001 19438 10141 
41103 22452 10175 1193 20436 11440 20678 12920 31989 
12744 1667 60272 41317 12843 40689 492 13416 10006 
40337 19621 57029 38584 63549 40176 14667 40976 10925 
30524 22549 10199 5143 11759 50247 65045 51730 11838 
38664 3031 21513 62385 5170 14180 53899 10504 3368 
1117 11467 11225 11026 50143 21967 11805 4065 58809 
21193 61832 13454 3758 21969 11352 42178 21470 2954 
21429 11830 21672 2362 21482 29560 1306 1623 2073 
19771 59552 1061 11744 10483 31327 12220 11719 11626 