LIGGGHTS (Version LIGGGHTS-PUBLIC 3.8.0, compiled 2019-11-05-16:26:16 by akansha_pandey, git commit ce1931e377a2945e3fa25dae0eebc1f697009a32)
