# vtk DataFile Version 4.0
Generated by LIGGGHTS
ASCII
DATASET POLYDATA
POINTS 207 float
-0.24345 0.00732585 -0.244921 -0.220181 0.00722803 -0.244974 -0.210608 0.0073163 -0.241968 
-0.201019 0.00729064 -0.244997 -0.1815 0.00731044 -0.24198 -0.168717 0.00719406 -0.242082 
-0.231946 0.00718345 -0.239198 -0.191837 0.00729506 -0.24071 -0.243762 0.007322 -0.231993 
-0.233075 0.00728204 -0.228687 -0.166531 0.0071783 -0.229153 -0.244727 0.00722247 -0.222037 
-0.179113 0.00723176 -0.218785 -0.234737 0.00718424 -0.213833 -0.223685 0.00732334 -0.216738 
-0.197339 0.00716828 -0.21543 -0.227305 0.00732246 -0.206902 -0.217299 0.00720555 -0.207078 
-0.17349 0.00731041 -0.200883 -0.245 0.00731537 -0.193797 -0.229888 0.00732385 -0.196695 
-0.218126 0.00726998 -0.197073 -0.206439 0.00732469 -0.189353 -0.192578 0.00719231 -0.191826 
-0.181641 0.00720921 -0.18941 -0.169301 0.00717975 -0.191333 -0.231019 0.00731992 -0.186739 
-0.2446 0.00736109 -0.180669 -0.223714 0.00719555 -0.179812 -0.204101 0.00719557 -0.178942 
-0.192185 0.00733696 -0.178657 -0.21439 0.00719552 -0.173846 -0.169179 0.00732805 -0.17226 
-0.162597 0.00720938 -0.164475 -0.182225 0.0072032 -0.15796 -0.244687 0.00720063 -0.157106 
-0.217376 0.00722607 -0.154358 -0.166718 0.00722405 -0.155298 -0.244069 0.00717801 -0.147124 
-0.224849 0.00718587 -0.147603 -0.234382 0.0072982 -0.144448 -0.211923 0.00719792 -0.140978 
-0.163892 0.0071751 -0.143598 -0.243671 0.00720153 -0.13713 -0.226966 0.00732297 -0.13772 
-0.189524 0.00721102 -0.136273 -0.179676 0.00733196 -0.133197 -0.245 0.00733371 -0.127157 
-0.234928 0.00728301 -0.128473 -0.223934 0.0072147 -0.128158 -0.212135 0.0071946 -0.130981 
-0.197788 0.00730365 -0.128839 -0.159135 0.00723485 -0.130469 -0.188142 0.00717968 -0.123643 
-0.23892 0.00734057 -0.1192 -0.228877 0.00718549 -0.119465 -0.219434 0.00719535 -0.116072 
-0.208879 0.00719173 -0.118669 -0.173627 0.00718527 -0.120014 -0.16358 0.00731961 -0.118162 
-0.244994 0.00723857 -0.111244 -0.235086 0.00721085 -0.109815 -0.182872 0.00732212 -0.110225 
-0.167681 0.00732471 -0.109018 -0.210765 0.00721118 -0.107442 -0.19088 0.00719525 -0.104115 
-0.200538 0.00732473 -0.101511 -0.175405 0.00723435 -0.10241 -0.157604 0.00720561 -0.097317 
-0.241705 0.00732868 -0.0923348 -0.22583 0.00729739 -0.0941058 -0.166394 0.00732782 -0.0925489 
-0.200466 0.00719544 -0.0845211 -0.198492 0.00731981 -0.0640511 -0.187977 0.00731994 -0.0641852 
-0.189378 0.00735143 -0.0532248 -0.15755 0.0072254 -0.0480642 -0.196134 0.00719472 -0.0410675 
-0.244955 0.00721329 -0.0222307 -0.245 0.00732453 0.0453948 -0.219262 0.00732474 0.163216 
-0.213065 0.00732377 0.21384 -0.231672 0.00723097 0.221785 -0.174868 0.00723027 0.216903 
-0.243547 0.00732558 0.229434 -0.228194 0.00719831 0.232766 -0.237134 0.00719023 0.238041 
-0.244613 0.00719982 0.24481 -0.213345 0.00719839 0.244441 -0.143634 0.00732373 -0.24481 
-0.133485 0.00728198 -0.245 -0.122705 0.00724006 -0.244812 -0.0722451 0.00718235 -0.245 
-0.0612174 0.00732332 -0.245 -0.129707 0.00732443 -0.232748 -0.137524 0.00726798 -0.226335 
-0.102248 0.0071793 -0.223738 -0.150684 0.00719564 -0.212975 -0.138674 0.00719032 -0.216108 
-0.0836447 0.00729303 -0.211155 -0.117539 0.00732319 -0.191172 -0.0995542 0.0071963 -0.19198 
-0.0816509 0.00720563 -0.192989 -0.154528 0.00724025 -0.183093 -0.128292 0.00729793 -0.18033 
-0.0756795 0.00723493 -0.0642317 -0.152712 0.00722722 -0.165999 -0.113657 0.00724146 -0.165166 
-0.0959851 0.00731222 -0.164771 -0.0723639 0.00736374 -0.166239 -0.1179 0.00729801 -0.155874 
-0.0998358 0.00717805 -0.155543 -0.0666961 0.00722821 -0.153059 -0.151562 0.00722859 -0.146904 
-0.113508 0.00718036 -0.144682 -0.100939 0.00717405 -0.143582 -0.141477 0.00734154 -0.129196 
-0.151431 0.00717945 -0.124062 -0.116049 0.0072004 -0.12598 -0.107082 0.00731991 -0.116468 
-0.148467 0.0071955 -0.114163 -0.12542 0.00722913 -0.111923 -0.0644544 0.00719508 -0.112722 
-0.156 0.00720366 -0.107442 -0.12864 0.00719585 -0.0979604 -0.110022 0.00735986 -0.091094 
-0.117503 0.00723313 -0.0738715 -0.0566941 0.00723252 0.0668398 -0.121373 0.00719308 0.0819489 
-0.134868 0.00733849 0.145444 -0.129847 0.00732166 0.193573 -0.0715001 0.00718343 0.217393 
-0.0892469 0.00726146 0.225656 -0.107204 0.00730678 0.245 -0.0788744 0.00718582 0.242246 
-0.0199084 0.00718182 -0.239586 -0.00629571 0.00731748 -0.220939 -0.0215908 0.00717978 -0.208797 
0.0349324 0.00732774 -0.177322 -0.024375 0.00719567 -0.16912 -0.0271016 0.00723963 -0.156376 
-0.0481037 0.00732511 -0.0868007 0.0134899 0.00721891 -0.0893727 -0.0283305 0.00723215 -0.0724473 
-0.0196784 0.00725525 -0.0386485 0.0381043 0.00721856 -0.00762296 -0.0519418 0.00721979 -0.176018 
0.0220782 0.007308 0.0238109 -0.0272561 0.00735306 0.0548532 -0.0467222 0.0072238 0.0660412 
-0.0109193 0.0073157 0.0931988 -0.0233635 0.00733437 0.114273 0.00383116 0.00731989 0.146439 
-0.0290158 0.00719303 0.214889 0.0158907 0.00720907 0.22587 -0.00998376 0.00722632 0.242684 
0.0100276 0.00732287 0.245 0.0899181 0.00732107 -0.0420797 0.0845678 0.00729903 -0.204702 
0.124075 0.00720323 -0.126665 0.118568 0.00720664 -0.114057 0.128288 0.00724815 -0.107614 
0.0616541 0.00734435 -0.0958677 0.0816219 0.00720235 -0.0803144 0.0867078 0.00721201 0.017589 
0.112957 0.0072019 0.0251218 0.0890509 0.00726354 0.0343337 0.0639783 0.00726218 0.213944 
0.0623389 0.00735849 0.0783236 0.143942 0.00717001 0.124567 0.189642 0.007316 -0.24352 
0.217053 0.00721526 -0.243936 0.244298 0.00732176 -0.240046 0.245 0.00717887 -0.229824 
0.213294 0.00717969 -0.213201 0.244919 0.00721426 -0.216395 0.227844 0.00720131 -0.210605 
0.240168 0.00724878 -0.207586 0.215716 0.00734548 -0.202744 0.221835 0.00717861 -0.185337 
0.244999 0.007236 -0.184287 0.215394 0.0071826 -0.177068 0.228335 0.00735631 -0.17081 
0.238607 0.0071966 -0.163998 0.228558 0.00731544 -0.148682 0.184015 0.00729888 -0.0926611 
0.224678 0.00721912 -0.0679248 0.239052 0.00729202 -0.0592841 0.174615 0.00717889 -0.0485601 
0.220634 0.00729815 -0.0491715 0.23354 0.00719523 -0.0468636 0.222986 0.00732598 -0.0369502 
0.239109 0.00732045 -0.0314571 0.18407 0.0073492 -0.0151356 0.16394 0.00721806 -0.244536 
0.244765 0.00720867 0.0121467 0.196199 0.00732096 0.0417014 0.244999 0.00732456 0.0221646 
0.198106 0.00728423 0.0656952 0.241703 0.00723141 0.0867349 0.232668 0.00717563 0.0971478 
0.164366 0.00719051 0.218292 0.219156 0.00731984 0.21688 0.187027 0.00732376 0.227167 
0.243072 0.00729055 0.223837 0.243518 0.00731064 0.245 0.159296 0.00723139 0.0449753 

VERTICES 207 414
1 0 
1 1 
1 2 
1 3 
1 4 
1 5 
1 6 
1 7 
1 8 
1 9 
1 10 
1 11 
1 12 
1 13 
1 14 
1 15 
1 16 
1 17 
1 18 
1 19 
1 20 
1 21 
1 22 
1 23 
1 24 
1 25 
1 26 
1 27 
1 28 
1 29 
1 30 
1 31 
1 32 
1 33 
1 34 
1 35 
1 36 
1 37 
1 38 
1 39 
1 40 
1 41 
1 42 
1 43 
1 44 
1 45 
1 46 
1 47 
1 48 
1 49 
1 50 
1 51 
1 52 
1 53 
1 54 
1 55 
1 56 
1 57 
1 58 
1 59 
1 60 
1 61 
1 62 
1 63 
1 64 
1 65 
1 66 
1 67 
1 68 
1 69 
1 70 
1 71 
1 72 
1 73 
1 74 
1 75 
1 76 
1 77 
1 78 
1 79 
1 80 
1 81 
1 82 
1 83 
1 84 
1 85 
1 86 
1 87 
1 88 
1 89 
1 90 
1 91 
1 92 
1 93 
1 94 
1 95 
1 96 
1 97 
1 98 
1 99 
1 100 
1 101 
1 102 
1 103 
1 104 
1 105 
1 106 
1 107 
1 108 
1 109 
1 110 
1 111 
1 112 
1 113 
1 114 
1 115 
1 116 
1 117 
1 118 
1 119 
1 120 
1 121 
1 122 
1 123 
1 124 
1 125 
1 126 
1 127 
1 128 
1 129 
1 130 
1 131 
1 132 
1 133 
1 134 
1 135 
1 136 
1 137 
1 138 
1 139 
1 140 
1 141 
1 142 
1 143 
1 144 
1 145 
1 146 
1 147 
1 148 
1 149 
1 150 
1 151 
1 152 
1 153 
1 154 
1 155 
1 156 
1 157 
1 158 
1 159 
1 160 
1 161 
1 162 
1 163 
1 164 
1 165 
1 166 
1 167 
1 168 
1 169 
1 170 
1 171 
1 172 
1 173 
1 174 
1 175 
1 176 
1 177 
1 178 
1 179 
1 180 
1 181 
1 182 
1 183 
1 184 
1 185 
1 186 
1 187 
1 188 
1 189 
1 190 
1 191 
1 192 
1 193 
1 194 
1 195 
1 196 
1 197 
1 198 
1 199 
1 200 
1 201 
1 202 
1 203 
1 204 
1 205 
1 206 

POINT_DATA 207
FIELD FieldData 3
id 1 207 int
131 2346 5794 1013 1957 5883 7911 6741 2186 
1984 6357 3538 3028 1269 1458 488 371 17 
3392 1027 603 208 1247 563 1304 1011 4783 
1048 1064 95 5831 3003 1949 47 4135 2804 
2338 3760 3738 921 7074 4561 889 6484 3566 
3629 2301 618 1118 2507 6159 1820 3365 1869 
8326 2428 2361 5380 3374 2100 3282 3192 4830 
6454 92 2533 2371 2171 1496 1836 1154 755 
2053 7017 3628 4486 7899 8696 6133 986 258 
6251 1834 2559 2078 4502 553 4648 3327 6347 
8119 575 1621 180 1478 3341 1172 4546 2373 
1214 8483 1368 5001 187 2869 4504 3674 1383 
4136 2221 8287 1439 3043 1555 288 4951 1217 
396 378 262 2494 1930 1248 97 4362 2623 
498 2748 1356 1180 1047 5126 809 1444 7842 
5244 2449 662 1785 3021 1503 3400 3539 7100 
930 1833 2118 1379 2195 6239 4273 4268 1874 
787 7815 249 1545 1817 4482 264 2151 1483 
56 791 7117 1124 1838 764 945 5088 5071 
5920 4496 1686 239 2230 456 1625 2606 515 
8673 1859 1585 7818 1793 386 4317 3147 4478 
1577 88 305 2063 2152 4318 1146 2319 3270 
3472 2917 4661 1320 4356 692 1142 814 113 

type 1 207 int
1 1 1 1 1 1 1 1 1 
1 1 1 1 1 1 1 1 1 
1 1 1 1 1 1 1 1 1 
1 1 1 1 1 1 1 1 1 
1 1 1 1 1 1 1 1 1 
1 1 1 1 1 1 1 1 1 
1 1 1 1 1 1 1 1 1 
1 1 1 1 1 1 1 1 1 
1 1 1 1 1 1 1 1 1 
1 1 1 1 1 1 1 1 1 
1 1 1 1 1 1 1 1 1 
1 1 1 1 1 1 1 1 1 
1 1 1 1 1 1 1 1 1 
1 1 1 1 1 1 1 1 1 
1 1 1 1 1 1 1 1 1 
1 1 1 1 1 1 1 1 1 
1 1 1 1 1 1 1 1 1 
1 1 1 1 1 1 1 1 1 
1 1 1 1 1 1 1 1 1 
1 1 1 1 1 1 1 1 1 
1 1 1 1 1 1 1 1 1 
1 1 1 1 1 1 1 1 1 
1 1 1 1 1 1 1 1 1 

radius 1 207 double
0.005 0.005 0.005 0.005 0.005 0.005 0.005 0.005 0.005 
0.005 0.005 0.005 0.005 0.005 0.005 0.005 0.005 0.005 
0.005 0.005 0.005 0.005 0.005 0.005 0.005 0.005 0.005 
0.005 0.005 0.005 0.005 0.005 0.005 0.005 0.005 0.005 
0.005 0.005 0.005 0.005 0.005 0.005 0.005 0.005 0.005 
0.005 0.005 0.005 0.005 0.005 0.005 0.005 0.005 0.005 
0.005 0.005 0.005 0.005 0.005 0.005 0.005 0.005 0.005 
0.005 0.005 0.005 0.005 0.005 0.005 0.005 0.005 0.005 
0.005 0.005 0.005 0.005 0.005 0.005 0.005 0.005 0.005 
0.005 0.005 0.005 0.005 0.005 0.005 0.005 0.005 0.005 
0.005 0.005 0.005 0.005 0.005 0.005 0.005 0.005 0.005 
0.005 0.005 0.005 0.005 0.005 0.005 0.005 0.005 0.005 
0.005 0.005 0.005 0.005 0.005 0.005 0.005 0.005 0.005 
0.005 0.005 0.005 0.005 0.005 0.005 0.005 0.005 0.005 
0.005 0.005 0.005 0.005 0.005 0.005 0.005 0.005 0.005 
0.005 0.005 0.005 0.005 0.005 0.005 0.005 0.005 0.005 
0.005 0.005 0.005 0.005 0.005 0.005 0.005 0.005 0.005 
0.005 0.005 0.005 0.005 0.005 0.005 0.005 0.005 0.005 
0.005 0.005 0.005 0.005 0.005 0.005 0.005 0.005 0.005 
0.005 0.005 0.005 0.005 0.005 0.005 0.005 0.005 0.005 
0.005 0.005 0.005 0.005 0.005 0.005 0.005 0.005 0.005 
0.005 0.005 0.005 0.005 0.005 0.005 0.005 0.005 0.005 
0.005 0.005 0.005 0.005 0.005 0.005 0.005 0.005 0.005 

