# vtk DataFile Version 4.0
Generated by LIGGGHTS
ASCII
DATASET POLYDATA
POINTS 8738 float
-0.235314 0.0042188 -0.244972 -0.219155 0.00148414 -0.244993 -0.196374 0.000186194 -0.244653 
-0.186602 0.00290797 -0.243926 -0.176606 0.00199184 -0.243661 -0.166623 0.00169466 -0.244195 
-0.223742 0.0102737 -0.242293 -0.213826 0.0109797 -0.244996 -0.202212 0.00861273 -0.244995 
-0.191604 0.0119951 -0.244738 -0.17164 0.0109337 -0.244997 -0.16164 0.0105428 -0.24461 
-0.244876 0.0034227 -0.241711 -0.227417 0.00144263 -0.239352 -0.209548 0.00249731 -0.241715 
-0.201442 0.00397131 -0.235902 -0.160626 0.0035431 -0.236339 -0.244991 0.00279418 -0.23173 
-0.217195 0.0022423 -0.235209 -0.191939 0.000852772 -0.235679 -0.18199 0.0020814 -0.235082 
-0.171724 0.00335533 -0.23488 -0.235625 0.00549593 -0.23426 -0.208286 0.0112726 -0.234294 
-0.234367 0.000146274 -0.225893 -0.225491 0.00333582 -0.229727 -0.217066 0.00348859 -0.224351 
-0.208188 0.00195323 -0.228798 -0.189935 0.00399015 -0.22637 -0.170912 0.00411962 -0.224878 
-0.239678 0.0117885 -0.226443 -0.200392 0.010996 -0.22817 -0.180893 0.0089797 -0.22777 
-0.162939 0.0122422 -0.227704 -0.243984 0.00153312 -0.221828 -0.226005 0.00411324 -0.219723 
-0.208662 0.00358536 -0.218936 -0.199449 0.00209169 -0.223188 -0.179922 0.00115935 -0.22077 
-0.16254 0.00461486 -0.219428 -0.175725 0.0110545 -0.219465 -0.234867 0.00129748 -0.215961 
-0.21756 0.00421976 -0.214371 -0.20032 0.00396683 -0.213331 -0.191031 0.00208291 -0.2166 
-0.172124 0.00313253 -0.214541 -0.244978 0.0113747 -0.217348 -0.184834 0.0102037 -0.215018 
-0.245001 0.00285231 -0.211693 -0.226705 0.00243207 -0.209762 -0.209214 0.00460833 -0.208786 
-0.191317 0.00183313 -0.206596 -0.181645 0.00221316 -0.209884 -0.164419 0.00389447 -0.207123 
-0.244985 0.0027606 -0.201474 -0.236237 0.00342329 -0.206281 -0.227352 0.003427 -0.199724 
-0.218352 0.00384794 -0.20441 -0.200905 0.00368872 -0.203307 -0.18329 0.00227994 -0.200014 
-0.173842 0.00324109 -0.203591 -0.156277 0.00270644 -0.20102 -0.23005 0.0113112 -0.205252 
-0.186593 0.0115214 -0.20471 -0.23601 0.000947444 -0.195351 -0.218938 0.00310938 -0.194329 
-0.209935 0.00376064 -0.198846 -0.192731 0.00167323 -0.196581 -0.175024 0.00301491 -0.193362 
-0.165797 0.003104 -0.197235 -0.240254 0.0108938 -0.198019 -0.231062 0.0115491 -0.194087 
-0.187292 0.0105742 -0.194754 -0.159177 0.0109366 -0.195906 -0.245 0.00194946 -0.191084 
-0.22786 0.00264288 -0.189688 -0.210839 0.00306569 -0.188463 -0.201797 0.00351266 -0.192709 
-0.184409 0.00221235 -0.189952 -0.158029 0.00236834 -0.190811 -0.22289 0.011928 -0.18834 
-0.236655 0.00210625 -0.184931 -0.219752 0.00229737 -0.183813 -0.202929 0.00339068 -0.182334 
-0.193753 0.00288391 -0.186412 -0.176658 0.00232594 -0.183525 -0.1673 0.00208547 -0.187062 
-0.214525 0.0122114 -0.182182 -0.171161 0.0108242 -0.182987 -0.161482 0.0106025 -0.186181 
-0.244999 0.00550032 -0.180429 -0.228546 0.00156486 -0.179098 -0.211751 0.00283559 -0.177652 
-0.195333 0.00243147 -0.175853 -0.18605 0.00247659 -0.179996 -0.168312 0.00236511 -0.176699 
-0.159293 0.00110108 -0.180867 -0.223907 0.0117398 -0.178394 -0.206295 0.0114749 -0.176547 
-0.197283 0.0123236 -0.181068 -0.18029 0.0109841 -0.178908 -0.162257 0.0103085 -0.176216 
-0.237554 0.00195025 -0.174462 -0.220607 0.00284327 -0.173001 -0.204165 0.00247668 -0.170996 
-0.187204 0.00215157 -0.169653 -0.178013 0.00240583 -0.173607 -0.160232 0.00240943 -0.170238 
-0.244927 0.00746733 -0.17054 -0.23298 0.011588 -0.173604 -0.21528 0.011521 -0.172133 
-0.198194 0.0115602 -0.169969 -0.189467 0.0104787 -0.174969 -0.171564 0.0125085 -0.172754 
-0.239146 0.00137616 -0.164556 -0.229478 0.00121386 -0.168527 -0.213015 0.00287954 -0.16635 
-0.195858 0.00279811 -0.164489 -0.169938 0.00296654 -0.166852 -0.233381 0.00955649 -0.163413 
-0.22436 0.0113721 -0.16779 -0.207045 0.0108776 -0.16536 -0.18148 0.0113948 -0.168951 
-0.164054 0.0109887 -0.165845 -0.231293 0.000963038 -0.158367 -0.222024 0.00264851 -0.162011 
-0.205001 0.0024517 -0.160372 -0.187915 0.0016517 -0.158327 -0.179257 0.00236986 -0.163277 
-0.161346 0.0031116 -0.1602 -0.244212 0.0102962 -0.160974 -0.225597 0.0108266 -0.157244 
-0.21651 0.0110047 -0.161562 -0.19891 0.0117414 -0.15927 -0.181978 0.0107388 -0.157314 
-0.173477 0.0123639 -0.16239 -0.240557 0.00351393 -0.153979 -0.223147 0.00258559 -0.152071 
-0.21398 0.00174906 -0.15598 -0.197035 0.00193337 -0.154235 -0.179748 0.00226375 -0.152241 
-0.170778 0.0028542 -0.156882 -0.235312 0.0126873 -0.153742 -0.217715 0.0128015 -0.151248 
-0.208589 0.0110598 -0.155414 -0.191055 0.0110483 -0.153057 -0.173554 0.0105477 -0.151127 
-0.164802 0.0127776 -0.15566 -0.232351 0.00222456 -0.148179 -0.215201 0.00267599 -0.145999 
-0.206042 0.00297157 -0.150012 -0.188899 0.00227561 -0.148152 -0.171838 0.00211934 -0.145695 
-0.162774 0.00250785 -0.149914 -0.226962 0.0123879 -0.147281 -0.209534 0.0123365 -0.145297 
-0.200298 0.011675 -0.149076 -0.182809 0.0108644 -0.147348 -0.165678 0.0116237 -0.145012 
-0.156613 0.0117806 -0.149223 -0.241301 0.0004644 -0.144056 -0.224476 0.00271947 -0.142034 
-0.207195 0.00370742 -0.140094 -0.198021 0.0025543 -0.144056 -0.180998 0.00281173 -0.141701 
-0.163543 0.00249673 -0.139934 -0.244992 0.00891356 -0.139069 -0.236085 0.0102175 -0.143444 
-0.218918 0.0118788 -0.141349 -0.192181 0.0108765 -0.14312 -0.174881 0.0115211 -0.141109 
-0.244138 -0.000508596 -0.134143 -0.233705 0.00248788 -0.13756 -0.216404 0.0026672 -0.135961 
-0.199491 0.00226433 -0.133876 -0.190243 0.00175843 -0.137821 -0.172927 0.00324747 -0.135811 
-0.228126 0.0115669 -0.136981 -0.184079 0.0116898 -0.137199 -0.16687 0.0115625 -0.134962 
-0.235662 0.00400694 -0.12756 -0.22559 0.00304343 -0.131738 -0.208582 0.00310155 -0.129746 
-0.191328 0.00165037 -0.127878 -0.182077 0.00245105 -0.131766 -0.164831 0.00273583 -0.129964 
-0.229245 0.0119606 -0.126997 -0.219707 0.0116494 -0.131377 -0.185236 0.0119006 -0.127239 
-0.176065 0.012666 -0.131197 -0.158924 0.0117361 -0.128872 -0.244965 0.00137245 -0.124104 
-0.227108 0.00333154 -0.121309 -0.217741 0.00242054 -0.125569 -0.200485 0.00236623 -0.123925 
-0.183399 0.00351584 -0.121911 -0.174111 0.00387581 -0.125892 -0.156868 0.0025809 -0.123903 
-0.220745 0.0110524 -0.121271 -0.211559 0.0117888 -0.125228 -0.194433 0.0107644 -0.123438 
-0.177345 0.012666 -0.121131 -0.168157 0.0120275 -0.125047 -0.244953 0.00347622 -0.114059 
-0.218749 0.00226335 -0.115614 -0.209598 0.00245055 -0.119762 -0.192458 0.00206201 -0.117936 
-0.17536 0.00366251 -0.115964 -0.16602 0.00365371 -0.120019 -0.236266 0.00777981 -0.117241 
-0.203561 0.0106997 -0.11933 -0.186614 0.0120743 -0.117336 -0.160292 0.0123006 -0.118872 
-0.228346 0.00495518 -0.111521 -0.210807 0.00282282 -0.109551 -0.201677 0.00232472 -0.113656 
-0.184671 0.00323006 -0.111766 -0.167263 0.00356198 -0.110097 -0.157979 0.00383998 -0.114045 
-0.221724 0.0124581 -0.111406 -0.204776 0.0111054 -0.109405 -0.195596 0.0103451 -0.113296 
-0.178746 0.0118021 -0.111171 -0.169497 0.0121289 -0.114958 -0.161617 0.0126046 -0.108823 
-0.238359 0.00500164 -0.106619 -0.220036 0.00275014 -0.105702 -0.202978 0.00239614 -0.103327 
-0.193793 0.00225549 -0.107502 -0.176584 0.00328257 -0.105883 -0.159219 0.00376445 -0.104119 
-0.244995 0.0118653 -0.10359 -0.2138 0.0123503 -0.105277 -0.196966 0.0108497 -0.102845 
-0.187886 0.0119514 -0.10699 -0.170878 0.0121411 -0.104944 -0.244815 0.00151393 -0.0989535 
-0.229721 0.00398194 -0.101667 -0.212197 0.00316761 -0.0994067 -0.195136 0.00239305 -0.0971067 
-0.185849 0.00299486 -0.101472 -0.168457 0.0030632 -0.100061 -0.223036 0.0116077 -0.101517 
-0.206708 0.0114914 -0.0974988 -0.235726 0.00414716 -0.0935778 -0.22162 0.00327945 -0.0958422 
-0.204387 0.00285051 -0.0930389 -0.18712 0.00404405 -0.091297 -0.177696 0.00410898 -0.0957877 
-0.16047 0.00444036 -0.094205 -0.215959 0.0112759 -0.0935214 -0.198497 0.0121894 -0.0917348 
-0.189389 0.0127993 -0.0963847 -0.172477 0.0126608 -0.0942967 -0.244999 0.00252719 -0.0889705 
-0.227594 0.00293462 -0.0878201 -0.213995 0.00168153 -0.0895593 -0.196424 0.00319928 -0.0870022 
-0.17885 0.00480504 -0.0856133 -0.169548 0.00383321 -0.0899957 -0.207577 0.0116407 -0.087537 
-0.160316 0.0126935 -0.00123395 -0.236658 0.00437807 -0.0835924 -0.219911 0.00306543 -0.0814179 
-0.205654 0.00281864 -0.0830959 -0.188147 0.00314033 -0.0813936 -0.170715 0.0034047 -0.0799769 
-0.161558 0.00346321 -0.0839932 -0.228027 0.0122044 -0.0821674 -0.245 0.00267187 -0.0783466 
-0.228996 0.00333845 -0.0772501 -0.211889 0.00279827 -0.0752661 -0.19702 0.00317947 -0.0761521 
-0.180055 0.00329933 -0.0755246 -0.162724 0.0022155 -0.0740874 -0.170745 0.0123373 -0.00338372 
-0.191195 0.0116657 -0.0755582 -0.237609 0.00415924 -0.0717753 -0.220969 0.00457322 -0.0714126 
-0.18887 0.00303141 -0.0702464 -0.172163 0.00362051 -0.0693202 -0.244998 0.0120928 -0.0718431 
-0.22937 0.0113724 -0.0711491 -0.215035 0.012945 -0.0692264 -0.203566 0.00973298 -0.0718207 
-0.183151 0.0130454 -0.069756 -0.156988 0.0106494 -0.0713238 -0.244966 0.00315778 -0.0645165 
-0.229362 0.00256714 -0.06634 -0.217606 0.00254064 -0.061047 -0.20874 0.00348793 -0.065799 
-0.198858 0.00388597 -0.0643232 -0.180808 0.00315502 -0.0642907 -0.163646 0.00278918 -0.0641472 
-0.235612 0.0110798 -0.0633288 -0.22421 0.0105675 -0.0626174 -0.23859 0.00322751 -0.056623 
-0.226674 0.00300243 -0.0565436 -0.207431 0.00311653 -0.0558545 -0.190123 0.00228129 -0.0596017 
-0.173087 0.00364705 -0.0578948 -0.211732 0.0116737 -0.0598506 -0.201391 0.0112684 -0.0580561 
-0.183136 0.0103943 -0.0576485 -0.167391 0.0120212 -0.0586879 -0.1574 0.0113844 -0.0590442 
-0.244708 0.00435533 -0.0487561 -0.215936 0.00338674 -0.050274 -0.197697 0.00322032 -0.0531143 
-0.17985 0.00365053 -0.0489791 -0.161802 0.00272963 -0.0543048 -0.220894 0.011628 -0.0530115 
-0.209534 0.011116 -0.0501133 -0.189102 0.00756035 -0.0494897 -0.231646 0.00405489 -0.0478896 
-0.206038 0.00250418 -0.0459139 -0.19631 0.00292145 -0.0432129 -0.169859 0.00386147 -0.0476982 
[...]
POINT_DATA 8738
FIELD FieldData 3
id 1 8738 int
6153 7900 55 35 3511 1775 7911 4427 5327 
4436 2793 1819 39 4391 7057 4449 200 5298 
25 920 30 1081 40 66 2653 3566 3538 
1799 52 169 7070 1777 7076 37 6159 11 
906 1760 925 1038 6185 935 934 905 151 
939 7074 5296 7920 913 3567 3524 890 944 
5268 48 1762 2686 3570 1771 900 1988 2664 
5264 33 62 891 2663 1758 1806 5308 5321 
2651 2677 6160 7 885 61 32 1104 4409 
7038 2662 1812 67 896 2687 5311 6156 4406 
3529 56 1781 879 34 1800 165 5304 2632 
2655 2689 1947 3520 1786 892 51 2697 45 
3569 6187 5270 2656 3564 3515 1816 878 887 
883 24 3577 3530 3574 3541 3565 3 1818 
884 63 1795 222 7021 4401 2635 3549 4448 
5457 1776 2696 4444 1809 1045 1091 6180 5320 
4386 3519 4583 3706 18 901 2646 64 2690 
1059 4420 4437 4404 2661 1982 1963 1805 914 
881 940 2681 1912 6192 4447 3510 3532 4438 
19 1821 1768 1770 1772 1076 5309 2670 1890 
895 886 1755 17 1790 902 1822 1780 3573 
5276 2822 41 1796 1798 164 1101 1773 1100 
2667 4443 5282 2637 2660 43 3513 1810 49 
204 1782 15 2666 4440 3571 58 5 1765 
1792 915 146 3568 4413 6198 5307 1761 3512 
1791 910 943 1802 880 47 7065 2679 2685 
4392 4574 4426 1779 904 1814 3562 1787 3514 
4424 1803 27 2636 1778 908 1063 4434 3554 
5292 23 1 46 1788 941 894 16 4435 
3536 44 889 8 20 912 196 3553 4397 
2673 2658 2698 899 1016 6152 5275 1801 888 
2669 933 2675 4417 2657 3557 2684 1813 932 
921 911 36 4 29 3527 2644 5274 2640 
1789 9 893 53 6177 3572 2694 5326 4550 
1766 50 219 928 5313 4415 2650 2676 922 
1820 21 13 186 3550 923 1764 2654 12 
2671 233 1110 7018 3563 3525 2633 2844 1774 
1785 65 1797 929 1987 4390 4405 1817 2766 
22 1815 907 903 102 1056 3516 4410 1794 
3678 938 57 978 26 14 1087 3539 3518 
4430 3548 926 1783 2639 937 1756 1051 6203 
3552 4431 4446 3547 93 54 1769 931 917 
251 1976 3543 3534 7895 4439 930 2652 918 
924 1077 3631 4396 927 1935 5322 1909 3560 
3545 3517 2649 2680 2818 2683 2643 7940 3559 
42 7063 3522 4418 5315 2693 5314 3537 5297 
7933 7903 3523 2638 4403 7899 3533 3561 5263 
6366 2672 2834 3528 7915 3558 6199 7959 7079 
5273 7944 7040 4389 6174 6173 3555 3551 6293 
1767 4598 3546 4452 2648 1029 919 936 6155 
6149 5278 4422 2682 2678 3521 3544 6200 2659 
3575 6172 3540 4425 4421 4442 4441 7916 4398 
1763 7962 7071 2634 7941 2645 4388 59 4411 
897 6 10 246 1184 1811 2692 7023 3615 
2647 108 916 80 962 1114 1757 4504 3639 
3709 2750 7075 942 995 295 91 1886 4514 
3583 83 131 946 119 85 969 1853 5336 
3606 1882 81 1846 3630 134 2744 2761 302 
3599 5373 1116 3593 970 1841 77 7984 4469 
2753 2755 2891 975 2701 2757 2719 3624 97 
6211 1004 949 1842 1006 1877 7113 2699 4464 
6440 1843 2736 1850 115 90 2731 1838 2963 
118 3637 1836 1849 973 1884 2881 7988 4492 
3585 4500 1867 69 991 117 1864 2704 2930 
6258 4479 2703 4458 70 3592 89 1878 95 
2743 4497 8156 959 1834 1887 1847 1003 7964 
5365 72 1829 1854 986 1863 4455 4506 4484 
961 75 945 2741 2717 979 1001 1835 255 
2702 4471 4494 6210 2008 1837 1866 1868 74 
109 1144 968 7124 4472 3597 5335 92 3579 
988 1855 2762 2747 3587 1862 2722 2705 2708 
2723 1879 998 2732 2078 1885 5392 3612 4508 
4515 3797 994 113 2718 1825 1872 966 4465 
5381 6270 6268 1876 1859 1200 2042 2752 5380 
3623 2746 957 987 1002 107 2057 989 3616 
3582 4473 3581 82 112 997 2735 2714 974 
1848 3605 3619 4453 101 129 1861 951 1869 
2715 3580 2733 5382 971 1826 1881 104 980 
100 5376 3598 2724 952 2716 1009 1833 1873 
132 123 293 7138 3591 1830 99 2707 2720 
2739 964 122 3596 3607 4507 111 1874 121 
1865 996 86 5366 3589 5357 7144 1008 1832 
105 1883 1181 1149 3636 3632 1206 130 103 
116 1851 78 1823 6239 3586 1857 976 1010 
960 984 2924 5390 4467 3620 2962 110 947 
114 1858 2028 4466 4513 5394 4512 963 106 
1880 1824 993 84 4501 6254 5377 2725 4475 
71 2737 1828 2728 2748 981 124 3628 5355 
3625 2740 1000 2749 992 1839 1827 125 2894 
985 6222 5387 3634 3584 73 1860 2764 98 
1991 3640 3601 4477 3610 94 1888 2738 2756 
88 3635 4468 1005 1852 958 983 126 5363 
4489 2948 7148 2730 3633 972 76 1155 8026 
1875 4491 5385 5349 5344 4505 7986 3578 1870 
2729 1007 309 1119 7980 1844 948 79 967 
8204 5359 977 965 128 953 133 8009 1845 
1146 3595 2951 2727 6223 3614 4460 1793 3617 
5395 3642 4495 3763 7094 2668 7117 3600 4499 
3611 2869 3613 4486 6469 4478 7975 3626 3594 
2710 1840 6388 5346 2742 7969 4480 4485 4510 
6266 5332 3588 2745 2721 1856 2713 3641 2081 
7977 2754 4490 5341 4717 4502 954 7141 2763 
2709 7127 4476 3621 2024 2711 5351 7973 6226 
3629 7966 4481 5358 5342 4503 5330 4474 3608 
4516 4482 5353 4518 4462 5362 4463 8029 1831 
7907 6188 8106 7923 4451 7949 8103 7951 7946 
5267 3531 4412 2665 7037 4429 7020 8038 6150 
5489 7919 6166 4419 6145 7188 6194 7199 7030 
6161 5405 7180 7168 5287 7954 1808 7247 7904 
6204 7082 5265 6176 7161 3556 7143 6147 2688 
6163 6154 7958 4540 7046 7044 6167 6201 7089 
7064 7294 5302 7078 4399 7935 7979 6316 2641 
5269 7910 7068 7033 6179 5459 6351 7053 4450 
6197 7073 8050 7245 7207 7060 6232 7031 7952 
7235 6158 8063 6186 6206 7963 6195 6182 5281 
7936 7909 7058 4402 8116 7083 7059 7932 5305 
8086 6295 6196 31 7921 7062 7913 6369 6344 
1784 2691 7918 5319 7948 6162 4428 8101 7024 
6178 5300 7230 5448 7906 7908 5295 7905 5286 
7034 8076 6348 7022 6168 4400 5301 6190 8092 
2865 6171 6189 6140 4393 7061 7902 5284 4433 
7077 7175 7967 4459 7017 7041 7934 6148 5283 
7215 8099 7072 7190 7313 5329 7950 5279 5415 
5464 7165 4395 7081 7961 7032 4416 7049 5310 
3685 6306 7047 6144 7912 7937 6164 4414 5318 
6142 3670 6183 7897 6191 7896 5290 5291 5266 
7171 5306 7926 3509 3576 7929 5293 6184 5272 
7048 3535 7162 6305 7069 7914 7036 7150 5303 
6181 6557 7056 8111 8098 5317 6151 6169 4408 
6165 8042 4541 7045 3542 4432 7050 7924 7947 
5312 6292 7221 6141 7930 6143 7042 4423 7953 
2674 7960 6300 7942 4445 4551 7945 5277 7213 
4407 4394 7039 5289 5288 5294 6307 4524 7067 
6157 2695 5285 7931 5271 5328 5316 7054 7957 
6175 7066 7955 7035 5491 3726 7925 7051 7186 
5324 6146 7027 3526 7080 7901 7943 6193 7192 
6170 7956 6202 5325 7118 7997 6395 6256 7938 
8013 4623 6312 7939 6229 7134 5280 4387 6260 
7052 6330 7133 7103 3627 7135 8023 5369 6205 
7971 8179 5575 6209 6234 6212 5348 2700 6217 
4639 6265 8027 1871 6251 2734 8010 6228 7922 
5338 7026 7122 8008 8206 7928 6215 6241 5379 
7087 6261 7106 7096 7121 7218 6248 6272 8002 
8189 7927 6257 5388 7278 8154 8126 8087 2760 
5337 8142 7105 4498 7097 6242 7084 4461 7112 
4696 8020 8005 7136 6271 6237 8172 5393 6405 
8219 6298 5361 3609 3590 7970 6233 8226 6214 
7298 8169 7327 2726 8186 8177 5331 6219 7090 
6426 7311 7337 4487 7119 7128 7992 7095 8018 
7345 6252 7107 6246 7085 7120 6423 8225 6259 
8022 6253 6218 5546 6207 4511 5364 3638 8017 
7140 6208 7976 7982 7267 7284 5354 8006 7987 
7109 8217 8003 5371 7993 4667 4509 6247 7999 
8182 6227 6216 5378 7104 7137 7142 4496 5383 
7132 6263 7111 8228 6255 7092 5339 7123 7139 
4456 7292 6244 4670 8028 6468 8164 5367 6264 
5517 7989 5370 7978 5333 7126 7145 8223 3622 
7995 8014 7296 4454 7974 4470 6230 5504 7115 
7300 6220 6225 8025 6224 5389 7996 7088 8221 
6475 3618 8178 5340 7110 7972 5356 8015 8007 
7101 8024 4483 7093 6236 3602 8171 2712 8216 
7102 6221 5350 7968 6262 4517 5368 6240 7259 
5360 8012 7116 5372 6213 6406 7129 8016 7275 
5560 5345 7086 5386 5352 3643 7146 3793 7990 
7994 7100 7099 7114 7998 8174 6267 8149 7981 
8195 8011 8183 2751 7108 6243 8001 8000 4493 
4680 7265 5347 950 2706 5374 5375 8004 7965 
4457 5551 6238 7991 6231 7149 7983 5343 7091 
6439 8220 6235 8218 6250 3603 7131 6245 6269 
6456 8019 982 5334 7125 155 7019 2823 1018 
232 7242 2824 3063 8066 8123 6353 1902 8093 
7170 8271 898 909 5493 144 7189 6358 1097 
6491 170 198 1943 1019 1898 218 2775 216 
2864 4563 2811 1013 1084 1972 2118 1014 7025 
6357 2842 3737 1944 1917 1108 1953 1980 1942 
5478 3697 3700 2854 2790 180 1973 1047 1035 
1957 2782 1903 1759 1926 203 1037 2841 220 
1012 1070 5420 3681 4593 3660 1011 139 1948 
1040 1918 3659 3649 4608 3665 3718 1804 1985 
1967 1057 1049 1956 163 2094 4548 1941 3688 
2819 2986 1938 3698 2846 235 224 5299 3730 
4584 2794 4519 3729 2827 201 1073 136 1893 
1025 223 182 3724 4527 4537 150 1979 2797 
1096 1939 3645 1072 2832 2850 4565 1962 1050 
2767 1065 185 1920 1039 7043 6373 2814 3668 
4567 3712 214 1928 205 3714 154 2848 1027 
5436 2783 3692 2863 6320 3711 211 1910 195 
1026 176 1111 1897 1951 4544 4586 5454 5487 
1974 2 221 1043 1020 1107 1927 184 1925 
3728 3721 2860 4543 1023 202 3699 1044 1958 
1064 3648 2805 6318 1936 5467 1966 234 1940 
1986 174 209 1048 175 4579 2778 2800 5495 
3725 2771 1949 2857 1915 171 1092 189 1067 
4528 2776 2773 2815 2789 1034 213 2849 1106 
1896 1030 2816 2836 3694 2804 3687 143 207 
1094 2786 1075 1041 1889 2792 3715 5673 60 
173 141 135 1083 1109 2099 3691 4588 3704 
2835 882 190 1952 208 2833 177 1964 2774 
4589 28 1028 1904 2856 1924 391 1954 8113 
4556 1984 1088 2807 137 1945 191 6347 3740 
1052 1074 1894 3723 4549 167 159 187 4520 
5505 2777 4522 149 1086 217 206 172 157 
1082 2780 2831 5398 4564 1919 1062 1079 1099 
1933 229 1036 1911 4547 4577 2772 2840 2853 
227 38 1968 193 2809 1042 1965 1977 3744 
3719 4561 2801 194 215 1969 3693 1899 181 
1090 4599 5463 4572 2829 3065 158 2855 145 
1046 147 168 1017 4533 4609 1908 2837 1921 
2817 3674 140 1033 230 361 5446 3658 1021 
1895 3690 179 1060 1031 188 1975 1102 156 
2798 4573 1978 1955 1268 199 1971 1900 3731 
2845 1105 2779 3701 5429 3677 192 166 178 
2825 138 1093 1983 6283 6304 4595 1981 2858 
160 1085 2812 1066 2810 2769 3708 4552 4553 
2826 1916 1930 228 1934 225 1892 1069 1248 
3673 4594 1923 3727 1929 2859 3669 1946 1970 
161 279 2802 1054 1237 3696 4606 1932 3738 
2785 1907 1055 1095 1901 153 1015 1089 1117 
433 4578 4582 2862 3661 2953 3026 1905 1959 
1112 1961 1080 300 2781 2897 1068 2843 2861 
2052 162 142 256 243 303 296 210 2945 
2803 2005 3742 5460 5681 2886 2788 4611 5482 
2791 3739 3667 2852 2808 5468 4539 2787 3705 
6286 3743 1290 3646 4587 4530 3653 4602 3716 
4571 2838 4523 5492 2765 4603 2799 2830 3702 
3710 1169 1071 5488 2796 6346 2821 3741 3664 
3713 2768 1931 2795 3720 8117 3651 5435 1807 
2784 2851 3675 4532 3672 3682 2828 1937 3662 
2770 6310 3722 6328 4615 3652 7178 2813 4555 
1913 7249 3650 4569 4535 6342 6544 1960 1989 
1950 2070 3771 1209 2025 183 3828 4721 2077 
2888 2938 3762 274 1134 2086 269 1199 257 
2221 1906 3796 4676 3777 3676 3932 96 2087 
1211 1168 254 3799 2932 2867 3832 6463 5554 
1166 335 1124 286 1183 3843 2006 2941 4634 
4715 4023 237 1197 2036 1121 2007 338 2254 
3813 4711 2960 2946 2942 2915 2925 3753 2026 
2901 2056 1133 240 322 1382 3768 5561 3798 
1995 2073 1213 271 320 2072 1126 273 1361 
3845 3784 3748 3792 4622 2889 2247 4032 1098 
1118 4712 1406 306 2913 3807 2910 2902 4853 
1125 68 2961 2896 2053 1177 2071 2935 3837 
3805 3163 2273 2033 2014 2956 290 321 536 
4695 4649 4626 3759 3782 326 2054 2061 248 
2058 1993 3754 3834 3801 3773 2016 241 1198 
242 1148 276 1387 2013 1163 2027 3113 955 
1191 1153 311 238 3809 3746 1193 4660 3124 
252 1174 1990 1178 337 333 317 1161 2955 
3838 7289 247 2911 339 3760 1192 3767 2920 
2075 5571 336 1182 2906 2035 1131 272 498 
3745 2940 2207 312 297 307 244 282 1202 
451 4646 6472 2011 2048 259 304 1160 1140 
1195 1357 2885 2084 2079 3783 5503 87 2074 
315 1992 1189 324 3803 3791 7338 5542 4034 
120 281 268 2882 267 319 1998 3766 3785 
2004 1154 1167 328 1137 323 2031 2010 2936 
4657 2030 4700 3829 330 291 1175 1170 1122 
2051 313 2018 2069 2918 2905 2034 332 1128 
1142 3840 1145 2908 1212 3769 316 262 1188 
2076 2884 2895 7325 4686 2017 308 329 278 
1165 2041 2023 3750 1115 3839 2947 6447 1147 
2067 2040 1173 2088 2875 2898 3821 4636 270 
260 1120 2062 275 1152 2921 3751 4697 2872 
3815 2883 4630 2083 314 1194 2917 3817 1186 
327 2049 508 4651 2082 2876 3819 5577 1185 
1158 1162 236 2063 253 1156 250 284 3795 
2037 2002 1204 266 2038 3756 1994 2922 1190 
1138 1214 1113 2059 1135 1176 289 3830 2933 
3827 4681 2965 2055 2066 277 287 1179 1171 
1196 331 3844 5536 2892 999 2039 1208 1127 
2964 2044 2879 1376 1203 280 1172 1164 1141 
2080 3835 2927 3836 5564 305 127 2012 2003 
1143 2043 265 2019 2929 2089 3772 2966 2000 
2022 1187 2032 8227 4661 4662 3761 1996 264 
2021 482 4716 4688 6387 3789 2926 1129 1123 
285 301 294 2944 2046 261 2931 5566 4707 
2934 4698 956 1151 239 288 1139 1205 2759 
2085 2949 4643 1136 245 1207 6442 2065 1157 
298 1130 1180 6375 258 1201 1340 2015 2880 
2950 6397 5569 8173 8152 2068 3752 3755 1329 
4682 5533 4705 2919 2937 5521 3824 2954 5502 
2020 2047 4628 4650 5539 2001 3825 3774 2959 
3820 4689 3757 2045 3604 3749 2909 4632 4710 
2870 2060 2871 2874 2904 3812 3747 2029 3822 
2878 2916 2064 2877 3842 6400 7348 2943 3806 
3833 3788 3800 4653 2873 4629 4656 2907 2866 
3780 2890 5543 2899 5509 2900 3966 4669 4685 
3779 3826 3775 2903 2957 2868 3810 1999 6434 
2758 3778 7220 7258 7205 6289 5466 5403 8119 
8043 4546 6281 6566 7225 3684 6324 7174 6361 
7182 6276 7176 8128 4590 7403 4560 3703 4575 
8104 3647 5443 4576 8298 6371 8129 5481 4679 
7204 7224 8030 7201 7216 7898 8059 7163 5424 
7206 3654 8108 5427 8055 5486 8057 7398 2893 
8080 7196 8060 8069 7198 4581 8109 5421 7209 
5440 5496 6559 5409 6345 3802 6321 8032 5470 
8070 3732 8263 7232 8077 7177 8081 6341 7202 
5414 6303 4610 8122 5428 5458 6365 8258 6340 
4619 4559 5462 5452 5425 8051 4580 7377 8125 
6364 6337 3644 8255 5461 6313 5475 6327 6314 
8072 7029 7157 8100 5476 5453 6374 8247 7155 
6274 8083 5479 6284 4604 8035 7200 7219 8253 
4542 8124 3717 6273 6301 8288 7210 6277 6285 
5418 8044 5434 6370 5404 8090 5413 7449 5419 
5472 3671 7243 5480 6350 7167 6569 8068 7152 
8049 6362 5678 7191 6332 7193 4536 3735 7194 
7159 5449 6367 5410 7208 5412 8039 7181 7244 
7055 5473 7233 4617 3663 7169 5447 4614 8276 
8282 8246 6390 5438 6290 4534 4618 7173 7917 
8053 8088 7217 8285 4566 6483 6339 6294 3680 
5485 4620 3689 5483 5433 5442 8273 8192 7214 
6359 8102 5469 5455 4585 5621 6288 8045 8075 
4557 7156 6323 5456 4613 4525 3734 5439 8107 
6372 5401 4568 2820 5432 5399 6363 5407 5396 
4591 8105 8040 6343 5494 8110 4529 8139 7179 
6279 8034 7166 5426 5437 7425 6326 7185 8249 
5445 4693 4612 8062 8095 8089 7239 7154 8031 
4616 7246 8114 7339 5400 3695 7234 7158 8073 
8047 8293 6360 8121 6354 4531 5444 6309 6311 
6280 5397 6297 8130 6325 3655 7404 8074 8115 
7386 4592 6334 5477 6291 5416 7183 5408 4597 
8056 8058 7222 8097 4601 5402 4570 8079 6331 
6299 5450 7197 6556 6356 5484 7250 5490 4545 
3683 3657 7151 8037 5406 5323 5411 7212 6308 
6355 7164 5422 5465 7184 8085 7172 6336 5417 
5441 8120 7229 7203 3679 4817 7153 6352 5474 
6317 6335 6296 5471 4554 8094 8052 6349 4607 
7324 8096 5430 3733 5451 8064 7241 6319 8078 
6278 6329 4562 7223 8127 6322 6438 8065 4631 
2839 6368 6465 7240 8434 6454 7460 5522 7330 
7551 6470 5540 8201 5508 5586 7236 6457 4640 
5532 8231 7226 6448 5572 6428 5513 4678 6443 
8041 4637 8046 7309 6404 4706 4647 5527 4633 
6382 8207 8153 7147 7303 6635 5594 5563 6414 
4673 4701 7307 4526 7286 8132 8091 7231 5583 
4720 7290 6461 8214 6403 3841 8398 6338 8380 
7304 6474 3816 5507 5516 4684 4874 7317 6450 
8061 7266 7323 6429 7546 8209 8386 6644 7269 
5567 6451 4668 990 6418 7346 8054 7326 6471 
5595 6416 6467 8194 7287 8352 8363 8166 5590 
3770 5557 2952 6391 7273 6389 7227 5526 3831 
6459 4718 5547 7276 7282 3776 4677 7340 7336 
4624 7343 7264 6408 4674 8155 4708 6385 8160 
8112 5581 6401 8342 7509 7349 7316 6415 8230 
7255 8141 5732 7268 8168 7297 7350 8423 2050 
8185 2928 4625 8190 6466 5538 5531 3781 7310 
3765 6393 6410 7277 4675 6436 8191 4692 7252 
5519 7332 5510 8197 7341 2887 6646 6458 5530 
5528 7347 5548 8199 8175 5596 7283 8138 3814 
7334 6624 6249 7489 8210 4702 5550 4694 4699 
4645 5549 7305 8212 6435 7295 6425 8148 5497 
5537 5544 6473 5500 3787 4621 5515 6386 7281 
8163 3786 6417 5534 5580 6379 6462 5506 4703 
7263 8205 5512 8165 7279 8140 7319 3823 7098 
5588 4627 3804 5552 5589 7351 8150 8184 7321 
5514 4672 4671 7299 7333 6464 7315 7260 6377 
8383 6383 8373 7256 4644 5529 6433 4659 5559 
6399 8213 6437 6427 2958 8170 8176 8379 5384 
7251 3975 3818 5591 5558 3764 5518 7280 6419 
6432 6455 4635 5556 6441 4719 3794 4691 3758 
8208 6392 8375 8187 4704 6445 5553 4709 7342 
7270 6449 6412 8433 8181 5573 5592 6421 5578 
8378 6476 4713 5574 7318 6409 5568 4690 5499 
5579 7306 5587 8188 4488 7312 8222 5498 7331 
4641 5520 5584 6384 5391 7254 5545 8135 5523 
7272 5576 7291 5565 5501 5585 8134 6430 8196 
6460 6396 7274 8193 6381 8159 4642 8203 7285 
7257 7314 4664 6452 7335 7302 6618 7328 6380 
6376 6422 8167 2912 8161 7329 7261 7262 8180 
4666 8157 3811 6453 5593 5525 7322 8143 8412 
8336 4842 8357 7271 5541 5582 7301 4658 5511 
7293 4683 7469 4655 8131 8133 4638 6378 7308 
7344 6402 4652 6407 5555 8224 5562 5535 8146 
6420 4714 8147 8158 8198 4665 1266 4748 386 
3913 396 604 8238 8071 2164 7383 8278 5645 
6484 4951 4558 7366 2124 346 1229 406 7415 
3860 3003 1316 1022 1061 4805 1459 399 8287 
6552 2189 3917 1032 2996 1314 2185 2155 1264 
2166 372 5700 5644 8242 4750 3025 367 1276 
3043 1228 2129 3856 3933 5672 4803 2998 2373 
4945 1078 1053 1286 1301 405 2186 1304 3042 
3892 3911 3040 8302 152 2100 3052 2141 427 
1251 360 359 352 3021 2139 3875 6537 1241 
2152 1224 3033 3905 403 2180 4739 3051 4723 
8326 402 1217 3068 1303 1283 2090 3928 5667 
3861 4821 3874 345 417 3010 3000 2125 393 
351 1309 3855 4745 2159 1279 431 358 1299 
2168 1260 2140 3877 231 2172 1277 439 429 
1311 5687 3931 3947 3888 197 374 400 2095 
2163 381 411 2138 2362 1914 2149 2134 4724 
1262 3028 2113 1285 1302 2133 2109 3941 3907 
2191 1236 369 1259 1223 2183 379 3736 3027 
3045 3054 3023 3058 365 384 349 1230 398 
424 1261 1272 1284 441 357 1273 1220 2110 
2153 3880 1271 2143 375 148 2126 2187 2182 
2146 1244 3891 2993 4822 2997 1891 3066 410 
376 1278 368 340 350 6333 5650 389 3863 
2114 3909 1231 1240 1428 4731 2982 3847 4794 
3945 2995 3858 212 370 430 2999 1269 1234 
2975 4733 2974 2145 2161 1312 394 3894 1232 
1247 2165 2167 2971 1265 4783 3053 1255 2158 
1245 1296 408 414 418 5674 3885 3873 3882 
3883 3036 4749 2156 412 1291 401 2104 4795 
3923 3031 3850 2097 3006 2119 371 2111 3001 
1297 2181 1226 378 4762 3050 1242 343 425 
2157 434 344 1257 3908 2991 2170 3061 2103 
3859 226 1222 1233 3707 4823 5632 3897 3049 
2179 4798 2130 2108 1313 2174 1243 428 3889 
2137 3013 3854 1058 2132 413 1253 404 613 
2101 3005 1275 3064 373 436 409 363 420 
421 1295 3047 3048 3037 364 356 354 2188 
377 2988 1288 2972 2977 6575 1024 1287 1239 
2985 1305 2171 2123 2178 3846 4767 2107 2127 
1306 348 347 2093 1218 2190 3057 3926 3884 
5633 4835 2160 3011 325 1227 2096 2147 341 
1315 2148 415 1254 3910 4816 3898 3924 4722 
4812 362 390 2151 2176 2121 4777 3886 3059 
3887 2973 388 1280 392 1215 355 2135 2128 
2173 3942 5608 2112 2162 1396 1298 1289 2970 
2115 3009 3940 5649 3918 342 1293 1238 1274 
437 3879 5610 6515 3022 6494 2175 2984 2969 
2980 1307 2990 5647 3038 3920 6493 2169 5648 
4732 426 1252 1292 3008 469 2136 2117 4786 
4792 5665 4740 3936 1366 1235 1359 1294 1351 
4729 3032 3034 4757 5659 3853 5609 3944 4785 
2992 4952 1250 2976 2106 3934 2092 3865 7651 
5688 3876 3019 2994 3004 3896 2105 3870 3015 
3002 2989 4521 2122 2144 3848 5605 4755 3078 
3864 6548 6524 3014 7358 7395 6568 5682 3929 
3060 2847 3927 4778 1103 3017 3046 3895 4738 
1922 2806 3039 4737 2978 2318 3939 4747 2131 
2979 2150 3902 3872 3906 3925 3857 3904 4764 
3067 1221 3930 5692 2154 3878 2116 3916 3868 
2177 8322 3890 489 1219 459 416 3157 2120 
1256 453 2223 7482 7470 5733 3020 2987 1331 
353 516 2218 483 3156 4031 3018 3083 5794 
397 263 1344 541 2192 1258 614 2225 2193 
4869 3012 299 2197 496 1249 387 1326 3098 
4000 4829 2256 283 2266 2275 526 1416 537 
3790 3150 3991 2213 2231 1403 3159 475 485 
473 531 492 1383 6616 4893 3104 3117 2214 
3371 3988 442 462 1404 1339 1355 1368 4887 
4015 3993 4017 2240 2208 2219 513 2268 1402 
500 2263 1365 4923 4001 2217 3069 1384 1324 
446 1381 2255 457 4852 3143 3129 444 1377 
3140 1370 1415 491 3109 3999 4833 5727 3135 
1385 2195 2248 1328 2252 1392 525 4007 5715 
4907 3120 3086 1389 1405 1343 497 466 518 