# vtk DataFile Version 4.0
Generated by LIGGGHTS
ASCII
DATASET POLYDATA
POINTS 4315 float
-0.230579 0.00504531 -0.244715 -0.220922 0.00757247 -0.244976 -0.203475 0.00568899 -0.244777 
-0.190593 0.00499098 -0.244379 -0.18078 0.00636439 -0.243073 -0.164565 0.00525859 -0.245 
-0.152226 0.00513658 -0.244809 -0.13607 0.00537269 -0.244616 -0.238171 0.0115238 -0.245015 
-0.211719 0.0113248 -0.244057 -0.198584 0.0148467 -0.244683 -0.172397 0.0116406 -0.245 
-0.158134 0.0132726 -0.244125 -0.147133 0.0137724 -0.244999 -0.238041 0.00530605 -0.237201 
-0.158516 0.0147346 -0.065852 -0.224112 0.00578522 -0.235015 -0.197116 0.00616987 -0.23481 
-0.185676 0.00498436 -0.233605 -0.16751 0.00516081 -0.233422 -0.156977 0.00523421 -0.234255 
-0.244922 0.0138238 -0.23577 -0.232206 0.011281 -0.231507 -0.208454 0.0122975 -0.234682 
-0.177659 0.0117924 -0.234815 -0.194304 0.014086 -0.109804 -0.227477 0.00575221 -0.224596 
-0.24147 0.00693146 -0.227968 -0.216924 0.0059308 -0.225142 -0.199695 0.00522592 -0.224969 
-0.137623 0.00660221 -0.225965 -0.173851 0.0109979 -0.225557 -0.164082 0.0139252 -0.22684 
-0.154837 0.0103685 -0.22568 -0.180203 0.00567742 -0.219365 -0.189486 0.00498416 -0.222985 
-0.166343 0.00515744 -0.222473 -0.14695 0.00500991 -0.222744 -0.241838 0.0124067 -0.219632 
-0.231472 0.0123492 -0.218127 -0.207932 0.0120525 -0.223326 -0.23999 0.00569275 -0.212535 
-0.201641 0.0050419 -0.213317 -0.168218 0.00522035 -0.21265 -0.155662 0.00538605 -0.216038 
-0.212517 0.00508438 -0.216018 -0.191345 0.00578199 -0.211924 -0.137081 0.00673492 -0.215928 
-0.185664 0.0134355 -0.21563 -0.175171 0.0126247 -0.212584 -0.146063 0.0124034 -0.215974 
-0.230249 0.00551605 -0.210347 -0.220265 0.00536813 -0.209758 -0.139412 0.00494744 -0.206022 
-0.244917 0.0139436 -0.209263 -0.235056 0.0138763 -0.207683 -0.203694 0.010855 -0.205122 
-0.160271 0.0113844 -0.20914 -0.150384 0.00820098 -0.207992 -0.157901 0.0055716 -0.201329 
-0.225291 0.00711902 -0.19926 -0.185409 0.00576369 -0.202605 -0.215428 0.013134 -0.202482 
-0.194648 0.014823 -0.200909 -0.170103 0.00882015 -0.203512 -0.133551 0.0118421 -0.20178 
-0.19787 0.00551859 -0.197881 -0.245005 0.00525147 -0.197806 -0.235246 0.00658357 -0.199636 
-0.208283 0.00488971 -0.198579 -0.136459 0.00496539 -0.194725 -0.203763 0.0128306 -0.19455 
-0.188033 0.00938769 -0.193589 -0.165379 0.00935264 -0.19471 -0.149707 0.00831701 -0.19622 
-0.24497 0.0107457 -0.189479 -0.234685 0.0135135 -0.191833 -0.214402 0.0104156 -0.192902 
-0.177602 0.00965268 -0.190182 -0.140421 0.0135002 -0.190032 -0.131506 0.00990833 -0.18735 
-0.233501 0.00531496 -0.186226 -0.147224 0.00520183 -0.182061 -0.212601 0.00966221 -0.183081 
-0.199709 0.00490012 -0.185121 -0.174759 0.004968 -0.181815 -0.223577 0.00973646 -0.186763 
-0.185422 0.00866536 -0.18397 -0.1652 0.0106826 -0.184732 -0.243706 0.00611152 -0.179924 
-0.230738 0.00510204 -0.176623 -0.157383 0.00568014 -0.18082 -0.138753 0.00557726 -0.175889 
-0.204742 0.0138736 -0.17853 -0.174809 0.0129569 -0.175875 -0.208628 0.00559837 -0.174581 
-0.16965 0.00491719 -0.172905 -0.159491 0.00510492 -0.17014 -0.132451 0.00533971 -0.168139 
-0.240302 0.0142868 -0.172072 -0.221825 0.00793978 -0.170477 -0.197751 0.0108441 -0.171983 
-0.186398 0.0119158 -0.174038 -0.149687 0.0109808 -0.174165 -0.243965 0.00573804 -0.163804 
-0.232235 0.00571996 -0.164825 -0.180435 0.00685105 -0.167357 -0.211597 0.012934 -0.168419 
-0.169398 0.0112202 -0.165223 -0.157281 0.0130013 -0.163929 -0.161029 0.00510794 -0.159034 
-0.237874 0.0130748 -0.160106 -0.218309 0.0141504 -0.157021 -0.191379 0.010461 -0.164231 
-0.135848 0.00573555 -0.158452 -0.244714 0.0057027 -0.153618 -0.232989 0.00690359 -0.153543 
-0.214542 0.00493215 -0.156357 -0.191848 0.00532389 -0.155484 -0.173506 0.00494559 -0.15302 
-0.204872 0.00738506 -0.156978 -0.198374 0.0123852 -0.151102 -0.182333 0.00845417 -0.156095 
-0.15029 0.0106158 -0.152266 -0.141509 0.014721 -0.161836 -0.207367 0.0142009 -0.0963071 
-0.21083 0.00791925 -0.146371 -0.1472 0.00489932 -0.141957 -0.24481 0.0108886 -0.140623 
-0.200127 0.00776091 -0.141888 -0.169144 0.00992182 -0.142275 -0.157653 0.012146 -0.145311 
-0.135142 0.00989967 -0.144643 -0.211041 0.00565536 -0.136225 -0.221991 0.00711839 -0.13414 
-0.188856 0.00544735 -0.135409 -0.235917 0.00902722 -0.1363 -0.194943 0.0133871 -0.133966 
-0.180124 0.0118954 -0.136691 -0.1596 0.0135178 -0.135015 -0.142356 0.0125295 -0.133741 
-0.180963 0.00502376 -0.129217 -0.158771 0.00496182 -0.12723 -0.148898 0.00529439 -0.129499 
-0.244923 0.0144842 -0.131071 -0.205906 0.00881655 -0.127039 -0.170746 0.00889457 -0.132409 
-0.132798 0.00808764 -0.130411 -0.193369 0.00615639 -0.125623 -0.215952 0.00564405 -0.126041 
-0.167942 0.00662878 -0.122389 -0.238436 0.00997301 -0.124218 -0.228241 0.00821667 -0.126406 
-0.142279 0.0110006 -0.123714 -0.224153 0.00552119 -0.117735 -0.152343 0.00607328 -0.119173 
-0.135126 0.00496985 -0.120231 -0.232453 0.0133729 -0.115765 -0.207611 0.014576 -0.0862001 
-0.211642 0.0105389 -0.116174 -0.201753 0.00903084 -0.115065 -0.17767 0.00738376 -0.119674 
-0.192711 0.00499193 -0.113706 -0.168808 0.00543907 -0.112305 -0.157501 0.00524861 -0.109266 
-0.236104 0.00534546 -0.109855 -0.216872 0.00558566 -0.109193 -0.180764 0.00821931 -0.109929 
-0.15908 0.0128672 -0.11635 -0.141893 0.00904093 -0.113712 -0.226747 0.00843499 -0.108356 
-0.141158 0.00639448 -0.103333 -0.131192 0.0058611 -0.103512 -0.244692 0.00736033 -0.105092 
-0.183795 0.0142018 -0.126589 -0.149597 0.0114156 -0.10773 -0.209292 0.00524328 -0.101117 
-0.166446 0.00655845 -0.102659 -0.149559 0.00502098 -0.0981262 -0.238328 0.0129089 -0.0971256 
-0.225432 0.0132966 -0.0992381 -0.196176 0.00693625 -0.10046 -0.177132 0.0130907 -0.098227 
-0.156072 0.0135674 -0.100476 -0.244601 0.0054141 -0.0949299 -0.203404 0.00488153 -0.0930969 
-0.192548 0.00523776 -0.0906338 -0.182936 0.00563531 -0.0947528 -0.159279 0.00506731 -0.0958611 
-0.217948 0.00801094 -0.0940152 -0.188774 0.0141865 -0.0932578 -0.165401 0.0130326 -0.0944965 
-0.134096 0.00992626 -0.0923932 -0.162573 0.00508872 -0.0864352 -0.235321 0.00588495 -0.0907543 
-0.225297 0.00507195 -0.0878767 -0.21144 0.00497707 -0.0870533 -0.151369 0.00526 -0.0855988 
-0.244986 0.0118987 -0.0860357 -0.143888 0.0146556 -0.203806 -0.172383 0.00509182 -0.0903845 
-0.157072 0.0133558 -0.0883975 -0.143912 0.00994043 -0.0903679 -0.199143 0.00494351 -0.0831532 
-0.235915 0.00759639 -0.0809131 -0.220456 0.00940119 -0.0794653 -0.186553 0.00601116 -0.0824476 
-0.176308 0.0104132 -0.0798243 -0.165973 0.0105156 -0.0786068 -0.144402 0.00822974 -0.0786905 
-0.133704 0.0130746 -0.0812997 -0.21084 0.0056807 -0.0753001 -0.242623 0.0100679 -0.0739122 
-0.202496 0.011622 -0.0760853 -0.155532 0.00847721 -0.0769863 -0.135336 0.00933648 -0.0719203 
-0.226725 0.00642341 -0.0721681 -0.217757 0.00504986 -0.0668674 -0.168345 0.00565989 -0.0684994 
-0.158358 0.0049175 -0.0675663 -0.205698 0.0123423 -0.0664357 -0.178287 0.00731856 -0.0677816 
-0.244628 0.00551834 -0.0652038 -0.18796 0.00560788 -0.0654278 -0.23446 0.00903704 -0.0640488 
-0.200298 0.00495282 -0.0624162 -0.244877 0.0141149 -0.0591726 -0.224788 0.0101971 -0.0619174 
-0.143833 0.00865454 -0.066528 -0.213008 0.00561215 -0.0579815 -0.192072 0.00514131 -0.0563441 
-0.163285 0.00500995 -0.0570544 -0.152269 0.00626881 -0.0551505 -0.136839 0.00491649 -0.0603815 
-0.194502 0.0144253 -0.0599432 -0.172695 0.00730089 -0.059501 -0.23867 0.00529641 -0.0537354 
-0.229315 0.00519544 -0.0498755 -0.205816 0.0061414 -0.0503421 -0.219257 0.0130098 -0.0527194 
-0.185698 0.0130713 -0.0544055 -0.172894 0.00732995 -0.0494724 -0.141128 0.0102189 -0.052511 
-0.242475 0.00596779 -0.0435933 -0.220004 0.00587293 -0.0457204 -0.182686 0.00504034 -0.0483661 
-0.160232 0.00612958 -0.0438225 -0.142796 0.00593228 -0.0431719 -0.244934 0.0144488 -0.0488836 
-0.234703 0.0120537 -0.0420867 -0.20037 0.0140312 -0.0464236 -0.191823 0.008899 -0.047103 
-0.151175 0.0144359 -0.046043 -0.22778 0.00514776 -0.0394833 -0.168404 0.00489942 -0.0381961 
-0.130256 0.00572823 -0.0412457 -0.244349 0.0129775 -0.0356222 -0.214801 0.0134923 -0.0389863 
-0.20545 0.00878167 -0.0378807 -0.156454 0.0141507 -0.0375516 -0.136649 0.0136467 -0.0384693 
-0.236793 0.00513763 -0.0350116 -0.218616 0.00494511 -0.0355488 -0.178239 0.00504417 -0.0364027 
-0.160517 0.0055787 -0.0320459 -0.148483 0.0049429 -0.0332177 -0.13772 0.00519576 -0.0332919 
-0.226275 0.0116421 -0.0320406 -0.189736 0.00780518 -0.034694 -0.244972 0.00503122 -0.0292395 
-0.231225 0.0052412 -0.0259676 -0.211108 0.00521408 -0.0278916 -0.183151 0.00537426 -0.0275949 
-0.244993 0.0142909 -0.0254173 -0.234977 0.0146852 -0.0249922 -0.168853 0.0148373 -0.116532 
-0.198293 0.00887173 -0.0262059 -0.170457 0.0106725 -0.0288525 -0.152981 0.012499 -0.0283065 
-0.14317 0.0134084 -0.0301256 -0.189993 0.00588894 -0.0187518 -0.15602 0.00544024 -0.0185336 
-0.243167 0.00495557 -0.0193442 -0.17626 0.00554013 -0.0203164 -0.165842 0.00543133 -0.0203383 
-0.146751 0.00580946 -0.0231179 -0.136046 0.00629735 -0.0232122 -0.1614 0.0143755 -0.02271 
-0.15032 0.0138477 -0.0182527 -0.141211 0.00491124 -0.0146506 -0.130359 0.00514549 -0.0135734 
-0.214387 0.0115954 -0.016218 -0.203655 0.0101697 -0.0172183 -0.170714 0.0133555 -0.0164367 
-0.182119 0.00579384 -0.0113051 -0.245003 0.0050829 -0.00952035 -0.209541 0.00533335 -0.00864069 
-0.198556 0.00503524 -0.00969749 -0.191832 0.0123077 -0.0111033 -0.171655 0.00549889 -0.00937333 
-0.162093 0.00536486 -0.0064897 -0.15044 0.00525092 -0.0096866 -0.222979 0.0146133 -0.0117156 
-0.158462 0.0129246 -0.0123708 -0.145458 0.0129615 -0.00560367 -0.135908 0.0115358 -0.0081527 
-0.188824 0.00585126 -0.00227021 -0.146001 0.0147613 -0.098885 -0.139205 0.00500271 -0.000743944 
-0.237152 0.0107678 -0.0058022 -0.227333 0.0106754 -0.0029878 -0.200386 0.00802145 -0.000323386 
-0.154734 0.0108563 -0.00256349 -0.194888 0.0134994 -0.221426 -0.13824 0.014993 -0.180227 
-0.195422 0.0142092 -0.0832261 -0.188296 0.0147364 -0.24396 -0.186574 0.0133314 -0.227698 
[...]
POINT_DATA 4315
FIELD FieldData 3
id 1 4315 int
8 1313 2178 469 3922 453 1792 2693 2215 
1755 2176 3891 3022 870 5 2342 1364 3950 
3933 474 484 1779 2209 3034 2210 49 1774 
54 3927 451 12 475 3051 1353 2624 3497 
3025 3024 1797 922 487 471 3509 2640 2271 
3066 3029 1321 3461 3056 7 897 1783 1750 
1319 1761 3063 1325 3946 1317 1312 1363 901 
2607 2606 3550 2597 871 3495 3074 596 3511 
920 466 489 3465 1323 906 918 3988 3624 
911 2649 3055 47 3490 907 3492 3471 16 
2177 2214 454 1752 1778 40 1846 3059 2736 
2622 445 879 1757 1782 2218 2627 53 2195 
465 15 2198 1762 3049 13 1418 1310 2222 
36 2207 2221 2632 1350 3061 1322 4060 1838 
3466 590 63 880 1348 1754 1012 1799 1338 
444 46 2212 491 3462 1788 1789 1756 2641 
2202 1775 144 2764 3896 3057 614 1796 1345 
3067 910 3945 1411 899 872 37 3482 1349 
877 3937 1019 915 1798 1785 2602 603 1751 
1416 2328 2208 477 10 904 468 960 1759 
56 2184 2180 602 3076 3925 2199 3026 488 
450 2621 2183 4050 2636 898 1346 3 3196 
1309 912 58 913 1883 1758 1357 3923 2604 
3932 905 908 176 921 2200 1343 45 3115 
478 1316 3510 2220 3459 900 1361 1787 473 
446 876 1342 1408 1311 3050 3112 1315 3120 
3060 479 3947 1352 3951 3028 1784 3607 1849 
34 3899 485 873 3182 476 2598 1358 51 
1406 2639 3468 2306 3032 41 60 2698 594 
3503 470 55 2213 1905 1473 3467 1340 493 
3940 490 4 923 2635 2631 2605 902 3058 
961 889 869 874 44 1765 472 4029 2630 
3062 3934 587 1360 1351 1356 2 38 3464 
1365 3031 3064 6 175 3052 29 2690 198 
1318 2752 1401 2642 1802 516 2179 3489 3180 
3900 917 2638 1044 1791 3904 3036 486 2601 
1777 925 2629 3938 1470 1776 953 67 3033 
218 1375 22 169 1836 209 74 2321 77 
2633 3918 510 3919 885 17 2637 1895 2671 
3202 91 462 3105 3213 3104 1371 1396 206 
938 1328 498 92 3968 1393 1379 653 3542 
88 3982 4103 4076 625 2650 30 64 3978 
2617 2655 1865 3088 3236 519 883 82 2662 
3965 1827 2249 4082 4009 511 211 2354 449 
512 3537 80 892 3971 2723 3570 1074 3480 
509 2652 1053 520 933 70 647 1822 943 
2288 1819 3513 1332 948 136 930 1823 3975 
4024 2661 3099 1427 1511 18 3106 1814 499 
1388 2611 84 3910 3955 941 3517 1809 3039 
886 2235 559 66 1376 93 947 2226 2374 
936 496 1807 21 2253 3954 1871 3093 2191 
2670 2619 501 896 461 1813 1831 2615 1370 
1385 1389 1830 3529 2247 2242 3144 1828 3043 
3522 1333 3981 2237 3524 1804 2244 888 1377 
1499 937 2230 495 2186 628 1378 27 515 
3478 2241 944 2248 2240 459 456 1963 2673 
984 2676 3957 3100 3911 3952 2613 23 1808 
494 32 3048 2188 25 893 2805 216 2610 
1382 2768 3103 78 1815 3109 1335 1326 2234 
3080 2245 2233 2651 1764 189 3531 3089 1386 
1383 956 2224 1806 949 990 1772 2231 3475 
1327 656 894 95 2243 1770 20 1391 954 
1817 2674 506 2614 1773 3536 3111 458 65 
3091 884 2668 1961 3959 3090 2657 895 1816 
79 1372 1821 3097 2227 3526 3535 3980 1810 
3084 945 517 75 992 507 2712 3966 3107 
2187 2679 951 3906 460 932 3516 3045 3967 
2675 1369 1824 2228 1825 2608 4111 69 1826 
1329 939 1062 567 2238 85 513 90 891 
3538 3515 2252 193 2189 199 28 71 3092 
1368 72 3476 2246 94 1805 4026 3921 940 
3916 3972 1424 927 1889 3094 4110 19 89 
931 643 3521 882 2677 3072 1786 14 4040 
1366 480 3505 99 3038 1354 4004 3065 3460 
2600 2182 3487 2194 1749 62 1781 3494 3500 
3053 3483 4094 2217 1341 1852 3502 2216 3902 
3078 4066 1337 482 3895 1800 3898 3930 3941 
2197 597 464 1793 3077 3054 919 2201 492 
2628 2623 1032 3037 3189 1320 3897 2314 2264 
2223 1420 916 39 3931 4034 538 1339 3068 
3496 448 3484 1413 3027 2337 3926 3035 3894 
1884 1795 909 3073 2634 3070 4036 3893 1837 
3486 2644 59 881 3472 3071 1347 1344 3473 
3469 1467 3504 35 1 3939 1898 481 2185 
43 903 1801 3485 3944 3929 3543 1924 11 
3936 926 50 2196 4049 2326 3609 452 3603 
3470 9 1355 3030 3943 1362 2648 1479 3948 
1753 2181 3079 3491 1314 2599 3935 2647 2205 
2211 2643 1760 3463 42 2620 3069 868 3611 
3892 2219 2756 467 1794 3905 3544 2646 52 
2206 878 3903 3924 914 3185 3508 1790 3506 
3493 4069 3928 2625 3498 483 2603 3949 3532 
2645 31 2204 2203 1359 523 2664 548 3635 
2626 2239 3958 1834 3963 3085 3108 2669 4011 
3209 3229 1950 1367 1397 2659 504 3044 187 
3645 33 2190 2299 634 935 2225 3520 3086 
3908 4071 3973 3231 2653 3477 73 3041 3512 
3953 3518 2667 1394 1811 2717 2250 3479 2804 
195 86 934 3917 3525 4104 1833 4106 3233 
2663 3221 4087 2236 2656 3915 3047 2280 3571 
505 3095 24 3101 3228 3141 3907 890 2609 
68 4083 1331 1381 1330 3914 1069 1763 3969 
4089 3081 2293 1767 1373 1862 26 2654 1384 
3920 3474 4017 518 3110 3912 1812 3541 1387 
3539 3530 2672 2618 1945 3979 2251 2665 3096 
3974 3534 2666 2193 1390 3657 1063 3533 2254 
3527 3962 521 3087 1501 3960 2229 3970 2232 
3523 508 1374 76 522 1380 1334 1336 2678 
1769 87 1392 2658 2769 500 1818 929 3098 
2612 2660 3540 3083 3976 3082 928 1768 1518 
3961 952 2192 1832 497 3909 3102 3528 942 
3046 503 1766 457 3964 1829 950 57 2379 
1820 1395 1771 529 589 3991 1803 1476 1003 
1465 145 152 166 2759 48 2754 3179 1835 
1455 1026 1461 3598 2750 2012 2303 155 2273 
1916 3631 3622 1854 1882 967 608 525 611 
1477 1403 2316 1035 3164 61 2333 1023 103 
1324 2329 1907 1011 2335 1842 106 112 1021 
958 2760 1486 1410 1841 1448 2315 2302 1414 
2042 2325 2323 3183 149 2340 3119 3600 978 
1892 526 3554 1016 1915 3983 3125 179 2733 
4001 586 1009 1445 3173 3604 573 2327 2311 
174 117 607 186 2739 2267 4005 3998 3545 
1921 3596 601 1464 1903 584 2408 1402 3610 
2738 979 598 165 1918 583 1412 2265 1922 
4171 295 107 4068 1038 1896 178 537 578 
1460 612 2687 161 160 156 962 535 973 
180 2761 1483 524 1462 545 1398 588 3129 
957 183 527 177 4031 4030 3165 4057 109 
528 3555 2307 1456 3127 968 2275 1886 2263 
2309 2269 4003 1409 731 3169 4052 2332 105 
1034 1094 181 1484 3201 108 2258 580 1030 
2320 1897 1446 96 546 575 1022 163 1850 
1888 3615 170 3591 1452 101 539 2726 3114 
2700 1018 3625 168 1900 530 544 547 2741 
2696 1482 543 1843 308 576 1031 1535 4038 
2341 2684 969 3995 3170 104 147 1478 3605 
966 605 924 1885 4046 1851 532 2694 1041 
1004 2692 3628 3985 976 1006 110 2261 1010 
3561 1039 592 577 154 3992 2731 1913 3562 
3618 3626 1844 1005 1923 157 972 2753 3167 
1419 2009 1853 1917 593 115 2701 1013 159 
3595 151 1454 184 1472 182 1444 2257 3629 
4198 581 599 1471 2682 3692 4059 98 533 
1857 2758 3553 1856 4051 2276 3128 2344 3160 
745 1453 1417 1407 1908 1912 1025 1415 3993 
3191 3168 595 146 3559 636 1637 113 1840 
2319 1058 975 1451 1405 2343 3132 3613 2688 
553 2746 142 585 1937 1449 652 609 1017 
4008 2018 1902 2310 1481 2259 3547 1146 3548 
965 3564 2331 3619 971 1909 2747 2686 3688 
4041 172 4053 4055 1043 118 1911 1430 2351 
1033 1440 4063 2287 222 100 2336 1521 1042 
3617 1400 185 2780 1117 623 4108 2295 1512 
2742 996 194 2763 1048 1080 2278 654 192 
122 1948 1876 2709 3215 1188 1878 1947 153 
2792 1867 2786 2366 1881 130 3220 1528 129 
2704 1052 982 1880 3138 3151 565 228 3650 
2718 4090 635 1500 2775 1085 2298 3672 3137 
3206 81 2281 2352 3643 229 1951 2784 3208 
1437 1084 1057 3673 213 552 200 340 3227 
2356 2286 1926 1081 1441 3235 4080 4073 2376 
995 1565 655 2425 1931 980 123 1925 1426 
1957 3216 1943 558 983 569 125 1506 1990 
3646 2703 2289 2360 2290 651 3589 1868 1425 
135 1067 1526 2724 191 1873 2300 3587 1078 
205 2348 3218 3219 570 1431 140 618 2721 
1211 3040 2776 619 561 2292 1941 3649 3140 
2291 1442 3145 1861 1859 4022 629 987 632 
208 1509 4028 3656 1503 1502 679 221 1429 
4098 210 551 1087 4084 1061 1935 4081 617 
549 2363 3644 991 1494 3642 83 1946 1000 
1558 1928 3149 1046 993 2358 1064 568 633 
3157 1944 981 564 2364 1047 2720 1438 1879 
563 557 550 3669 224 3652 1051 202 3214 
997 994 2380 126 637 1436 1075 1942 1055 
2279 4088 2778 121 2297 1523 2359 1086 463 
2774 219 1866 3655 3977 2772 2789 1492 4091 
1059 217 3142 4085 1965 4092 2357 2350 3155 
1940 2285 2773 1860 141 1073 1514 227 4107 
1504 1953 1045 2800 985 1423 1490 1002 2801 
778 1520 560 1433 1874 1066 2808 2370 1875 
3648 1434 4095 204 3238 4093 988 638 2794 
225 1498 1960 1524 556 207 3913 2707 1457 
3143 1507 648 1516 1001 645 1496 197 1082 
566 2616 143 4018 137 2795 562 2383 1959 
1079 132 1958 1489 3225 998 1934 128 203 
4136 1422 986 138 1933 1488 1493 1050 1949 
1877 1049 554 4075 1519 3659 955 455 1191 
3637 139 3210 2782 3569 1060 4012 626 1072 
1439 4143 2381 226 2056 2349 3578 3577 621 
1872 641 3773 2347 631 2353 4021 4102 2346 
2714 642 4112 1435 3641 3662 2796 2807 1955 
946 3126 4035 875 2680 3942 4064 2765 3620 
977 3162 2256 1040 2728 116 2313 2730 1028 
3187 4033 171 610 2681 3075 1845 2683 3597 
3118 2324 2767 606 1894 4115 3133 3290 158 
4070 3190 3599 2743 2308 3184 3552 2464 3178 
1914 3161 3565 97 3986 1037 1450 963 3551 
3557 3546 1020 447 574 3761 4039 1899 1468 
4058 3121 1887 2744 1027 3556 2697 2702 3627 
1399 2727 111 3171 3616 1015 2270 4042 572 
2762 2040 3623 3606 3197 2729 4067 2312 3560 
3558 1890 1848 3549 4065 4037 3996 3174 531 
2301 1029 4000 2305 959 4047 3199 167 1536 
3113 3134 4044 1458 3181 2691 3997 2757 102 
2260 4054 2803 1976 2274 4061 3994 3122 3163 
970 613 1858 2387 1459 3200 591 4062 600 
1474 1466 3131 1024 1901 2725 1463 3193 162 
3990 2339 150 1480 604 4002 1893 2823 3159 
3198 3166 3177 582 1920 542 2277 2272 541 
3195 2766 2732 148 3608 3612 1014 2737 3175 
3130 3186 3124 114 2699 2255 3594 3614 4045 
4172 2755 1904 3590 2262 2268 2334 3750 3630 
2322 1036 1906 3116 4048 2749 2317 1910 2266 
3172 127 4007 3232 2771 3194 3205 2294 1495 
2740 4077 3188 120 3665 2706 4014 3582 2367 
3146 3668 3222 1864 1938 3158 4025 1443 190 
3192 220 4079 3212 188 4105 4109 1475 3671 
3584 2715 196 4006 3147 4015 3654 1510 3579 
630 2368 3237 1054 2296 3217 3573 3223 3574 
215 1936 620 2793 3791 3242 4078 2481 2503 
3148 1505 3566 4010 2282 3207 2798 4096 4020 
2779 887 3154 3716 4013 1522 2362 3666 212 
3241 2369 3572 2705 757 1497 3663 3153 2777 
3636 4027 3581 124 1966 2806 616 1491 2788 
502 2722 640 2284 3653 2708 2791 514 3230 
2505 2355 1065 3778 1932 649 1513 2361 2799 
2384 2785 1962 2710 1432 2781 2783 3139 3588 
3481 2719 3234 4072 571 3568 4101 1076 4074 
4225 2713 3135 3156 214 3576 3203 1954 3136 
1070 2371 3660 627 3575 3670 3658 2372 2386 
3240 3639 2809 4153 1508 3583 622 2385 1870 
1527 3647 1077 2711 2375 3956 3586 644 2790 
3152 1869 1071 3667 1487 615 3651 1930 3204 
3632 4023 131 3243 2501 1964 3211 3633 4100 
3634 201 134 4097 3661 1927 2802 3585 2378 
3592 3364 2373 1056 3519 3224 974 3601 3316 
710 1981 1093 964 1580 1168 312 1103 674 
1581 3689 1577 1174 1839 245 1588 1919 1099 
233 2860 1606 2044 729 1108 1447 1109 705 
2867 3254 4186 1550 2432 4179 1404 2884 247 
4190 1552 2020 1986 2875 1147 2827 2466 3294 
4188 3299 1152 536 1604 735 703 2033 738 
1007 714 4173 725 2816 2810 3677 2819 709 
3846 2019 730 281 663 1610 3602 668 1532 
3261 1579 660 1166 2434 1542 534 286 3262 
669 3721 2007 4165 2013 306 2859 4134 3319 
249 1592 670 1533 1531 2401 3686 1548 243 
274 1982 739 3304 2029 1110 1971 4194 3727 
579 2873 1530 2468 2338 1595 2036 311 232 
675 2015 289 3328 1158 1149 1972 3754 1599 
3266 3248 3315 280 291 2456 2862 3728 1596 
2829 2735 2445 1593 719 173 3695 3249 3678 
1600 1983 2821 1138 1153 706 3301 3726 2864 
1134 2026 1585 2830 2407 1988 737 1979 2439 
3752 1170 4182 1589 732 241 252 1160 4043 
2465 309 3757 1162 2452 1089 246 2404 2685 
1968 3295 1590 3756 1583 2304 733 3681 277 
720 740 1546 736 734 304 239 713 664 
273 4191 3682 1097 661 1975 3680 4183 2870 
1615 1545 1538 671 1969 2433 2028 2815 666 
2880 2811 2023 1105 727 1586 2886 287 2874 
4176 2472 3296 3758 1154 2027 1142 726 2876 
4127 2877 307 4193 1551 672 290 251 4159 
1104 2330 717 2469 283 119 231 4123 1161 
1144 1529 4189 1587 677 728 1090 1175 3733 
2883 2390 1607 2017 164 1157 1143 3325 279 
1984 1098 2831 1970 2437 235 658 2822 1135 
236 3317 314 3691 2889 2045 1150 1539 1534 
3300 1165 1156 2897 4287 2041 2389 723 250 
1974 1987 1608 1139 296 1617 2396 3324 300 
265 1167 722 2885 2084 2405 301 2470 1100 
3723 3256 3759 3753 2449 1847 2817 2024 3563 
2043 676 712 3320 1092 2412 1609 278 2504 
3737 1612 2071 2005 2318 4162 2400 2748 2946 
4296 4197 299 3329 4126 2463 288 3252 3621 
716 2871 2828 3318 1540 1855 3263 2436 680 
1571 1995 2008 2039 4129 639 3281 2881 555 
1133 2016 1136 684 749 1576 2850 4099 346 
1632 2065 1657 2082 4114 1428 1197 4234 2049 
2455 1179 319 1208 1647 2413 2925 1194 4231 
2054 2087 999 259 1205 2911 2855 1187 3707 
2006 223 4205 3275 2419 2479 332 765 2905 
3640 3702 1202 1210 3278 691 3794 4228 1119 
1213 342 255 2474 2502 3335 2426 1204 1991 
2484 3784 3772 325 2068 1517 2847 2910 1113 
253 267 2900 1554 761 3345 1659 3352 2493 
2934 1650 2903 4216 773 1619 1068 3331 323 
2838 2844 2154 316 315 646 4212 1195 1199 
2834 1646 3795 2841 1556 1192 133 3280 2418 
3348 744 1622 3797 756 3370 2508 1525 2098 
3775 2933 689 1644 2001 688 1563 2496 2480 
693 1130 1939 753 762 3792 4156 3341 1655 
2420 341 681 2915 335 697 2899 2415 2069 
1190 2416 339 2914 1993 321 1183 3239 3271 
2930 318 760 1123 350 2067 3706 2491 4224 
682 343 781 329 320 2050 2414 1621 2839 
443 2485 2922 1128 1125 1653 2837 3799 1178 
4086 3358 747 1132 1114 1553 2066 2345 2428 
2917 317 748 3804 1623 2074 2787 2498 2075 
1215 1574 4227 2429 3788 685 779 4206 2846 
2935 3346 3279 1575 3705 1645 2430 1863 690 
4200 2424 264 1625 1977 2417 3803 3713 1196 
352 4210 2486 1567 2494 1649 768 2410 1120 
3283 1631 347 2059 271 1568 1997 345 3698 
4199 2478 3284 4202 4157 3711 355 766 2851 
1203 3786 348 1177 3769 2770 3719 2083 254 
3356 1193 3447 764 2053 2843 2073 678 2845 
1564 3790 4239 1566 1633 1184 1182 1572 1638 
3796 2085 266 759 2110 774 344 2923 1629 
3764 268 2906 755 258 1112 1992 322 328 
698 2431 2411 1634 2907 3363 1640 4229 2076 
3270 3276 2514 1626 2078 692 2052 3664 3332 
269 3286 1999 4233 758 2000 1181 3828 1630 
1952 1200 650 2512 1421 1083 1115 1176 3361 
272 2377 751 624 333 771 1635 1682 683 
1658 2939 4141 4207 3288 2427 2061 3798 2060 
686 2086 3768 695 2506 694 2511 777 3388 
3255 285 3244 2461 1989 244 1172 3292 2442 
711 2872 2064 3755 2038 2011 1169 708 2539 
667 2745 4158 4192 2818 3593 4132 4128 2398 
1582 2394 4145 2824 3314 248 2462 3176 2448 
4161 338 2444 4164 3746 2453 2403 2812 3251 
3684 282 3291 298 2887 3321 2397 4180 1641 
662 3731 3732 297 2032 3762 3989 2441 3306 
1148 3730 4175 4032 4121 2879 3302 3257 1008 
2402 3749 2695 3679 4117 1547 3687 3258 2451 
3323 4167 238 3742 665 2894 2459 2813 1107 
4122 2473 4163 3984 2014 3697 702 4116 1891 
2832 313 4120 3760 4187 1591 3312 2037 1163 
3683 305 4168 3307 1578 3734 3313 2031 3330 
3247 3675 3745 3259 1171 3729 2471 3310 1598 
2689 4181 3326 2893 1155 3987 3308 2446 4169 
704 240 3327 2751 1605 2443 3743 2895 4125 
3744 715 724 4170 2888 1088 3751 4119 3693 
2435 821 3309 2460 2467 2388 3246 707 4177 
3774 2861 3740 2863 3253 2457 3298 3738 2021 
3747 3311 293 3694 2878 540 1173 3245 1718 
4113 2868 310 4056 2826 1164 2399 2454 2022 
3676 337 4185 1485 3265 4184 1096 3674 3763 
2010 3250 3260 1095 1141 2734 1102 2450 4174 
3690 3999 2447 2035 2890 2891 2820 242 3423 
3117 2393 701 3123 2896 4196 1469 2440 1101 
3722 1603 1129 2892 2046 4203 2079 1998 3685 
3709 2938 2458 2882 3334 1124 1929 767 4131 
2382 3336 257 4218 3333 3287 3351 2507 3355 
1159 1654 2487 3567 4221 4149 3343 3340 4230 
3703 3282 4148 1562 3353 4238 775 1131 3770 
770 4142 1636 1198 2909 776 4146 4152 3354 
4147 2500 327 1642 2901 3720 3714 1573 2929 
2916 2482 4150 330 2509 1201 3781 2833 2904 
2283 3879 3349 4223 4213 2919 2088 3226 2842 
2510 2483 4219 4139 2003 2497 3285 1994 3701 
3338 2797 2080 1206 3710 351 1651 3776 3638 
2477 3801 2051 3771 1216 3712 2716 2489 2852 
2421 1122 2513 2002 1212 4217 2908 270 696 
3362 699 3783 4201 331 847 4222 2589 1656 
2422 3369 3718 4019 3366 763 4155 4204 326 
3360 752 989 3357 372 3580 4016 2913 1628 
1627 3780 324 4318 1956 2488 2062 3274 3782 
1996 4151 4236 3359 2495 2423 3708 3150 1185 
334 2926 2365 1121 3785 3342 1620 4154 2848 
3365 1118 3715 4211 1560 3350 3272 1209 2928 
742 2853 3704 3371 4137 4235 4144 3337 1559 
1648 746 4215 2927 1515 3449 3700 2835 2937 
3267 336 3777 2583 3273 2918 2856 4226 1214 
2552 1667 2970 1584 1673 2143 834 2562 791 
4178 1267 3377 2048 2945 2972 2898 3383 1273 
2047 2541 4300 2115 384 1266 3739 368 2134 
3809 3842 1706 2099 4283 1980 1690 1739 1695 
395 3374 2950 4274 3289 230 2544 2947 4135 
2516 2126 700 1660 2548 831 788 2025 386 
2128 836 786 2954 3810 3850 822 2550 302 
1222 3854 364 1601 1220 3845 1541 2983 1544 
1137 357 2144 2438 4273 3855 4292 830 2866 
2988 2132 1276 2391 363 2145 2987 2963 3859 
1256 1712 398 3725 1268 3402 1219 2542 2869 
2100 2034 2545 1271 1543 358 2525 829 2565 
3303 807 1226 1255 2553 2090 1978 1106 2944 
411 826 292 1688 814 2133 2942 4302 810 
3293 832 3841 3297 813 811 3384 1707 1669 
718 3408 2524 4245 2093 4240 1218 406 659 
1613 1689 2125 1703 824 4297 1693 3305 1277 
4284 1611 2392 3381 2521 408 2030 2127 1258 
657 3378 389 816 1662 2096 1708 2546 2091 
1145 4244 2136 1602 1701 2962 4246 1691 1665 
4241 2118 2969 2825 2518 4281 407 4130 3812 
2971 1716 2520 1710 2951 2537 1278 3813 412 
404 3400 1700 2121 3838 1711 362 2560 393 
4252 2981 1672 4160 4124 1698 4248 790 1261 
828 3831 1260 1251 1275 789 3835 2092 782 
403 809 405 2551 1223 2119 1272 1664 1616 
785 1254 1694 4294 409 387 3851 2975 2140 
2519 1250 1264 1704 1702 1262 2967 4301 3840 
294 3853 783 360 2559 1713 1537 1249 413 
303 2120 3428 673 1666 397 2986 4288 808 
4166 1230 3425 410 817 3368 2395 1699 399 
4275 1151 4195 1246 2531 1221 2964 795 1091 
2097 359 3264 4272 2949 1274 2984 3379 2587 
1259 3848 2515 4243 396 1709 792 1661 1265 
2941 1685 237 2563 2149 234 2561 3404 2527 
2549 385 3434 2161 2953 2932 3003 1245 864 
2114 2146 3805 3414 1233 1737 1731 842 796 
1295 1722 819 2167 837 2958 1967 4308 858 
797 2107 3443 1741 4324 2996 4264 375 4270 
2089 1643 3441 438 381 3395 2595 1293 1683 
840 2104 3815 2956 2157 3386 1740 370 859 
2164 1732 848 431 1243 3885 2165 1305 855 
2528 3277 3800 3458 3884 1719 3874 804 1677 
2530 850 687 3873 2171 839 2902 1234 2994 
2572 2168 1569 1240 793 2113 2175 2535 2106 
2992 3814 3437 865 741 3867 3822 4321 1720 
427 2921 2579 846 1126 428 2573 383 1680 
2173 262 4332 861 1742 2998 2582 3014 421 
1561 1231 3020 422 1286 380 2162 1674 1679 
1207 2063 2105 2148 1242 261 2108 2955 3008 
2576 1624 430 2160 841 1745 1285 1738 2840 
2584 3419 2534 2575 1304 1292 1723 4257 2077 
853 1247 1241 423 3015 1686 857 769 4316 
374 4327 4267 801 4208 2569 379 4258 3005 
376 429 3016 844 843 442 3438 1294 1747 
802 436 2499 2072 3817 2111 4262 414 2476 
1296 1721 3442 1730 3435 353 1289 1724 803 
1748 416 260 439 1111 1282 4265 2159 2174 
2124 856 2999 1725 434 2109 2957 2571 4325 
441 1287 4329 3009 2055 4323 437 3864 3871 
425 3880 4320 2586 1733 378 2112 3019 4313 
4330 382 1186 3765 433 2961 2594 3861 3398 
3779 3802 3436 3869 1652 772 3004 1235 4319 
3819 3010 2959 2058 3457 3882 750 2147 1279 
3000 2577 2568 2057 1735 3394 1736 1299 1727 
1239 1676 2936 2593 3433 3268 2156 3888 2566 
2591 2103 1302 2170 3391 1284 1746 2492 2570 
3889 2155 3012 3816 1244 3870 3006 418 3450 
1116 2581 426 1300 800 3013 3269 2596 420 
867 1280 263 4310 3011 3872 3431 3877 424 
2529 2997 2993 2102 851 1570 1189 2574 3455 
3820 349 256 1597 2117 4118 3412 4253 2135 
401 394 2948 3839 3424 366 1985 3372 3830 
2409 784 275 2094 4277 2979 815 4133 3735 
1717 276 4247 1269 2406 3811 835 367 4254 
4282 3382 2536 3856 838 3836 2952 2122 3422 
3426 4279 3829 2857 2523 2543 3748 2989 1696 
3375 2141 3380 2547 3833 1228 1705 1973 4276 
3322 4299 361 2540 3834 4250 3409 3413 1224 
4249 392 2973 2968 3821 1715 3415 812 833 
3849 1217 1594 1227 1257 2564 2556 3857 3844 
400 2130 3852 1225 825 1671 2977 4293 3860 
3405 3410 1252 3858 1668 1697 1270 388 1714 
3865 4255 284 390 787 2940 2974 3347 369 
4298 2095 2991 3736 2858 3406 4295 3847 2943 
4289 1253 2976 3403 4261 3373 2990 2129 3420 
3875 3807 2558 820 2966 1263 3837 356 2131 
402 806 1248 827 2142 4251 2982 4285 2555 
2517 2139 2965 3416 1549 4291 2116 1670 721 
3427 3808 4286 2980 3741 3421 2557 4278 2854 