# vtk DataFile Version 4.0
Generated by LIGGGHTS
ASCII
DATASET POLYDATA
POINTS 207 float
-0.24345 0.00634585 -0.244921 -0.220183 0.00625856 -0.244974 -0.210608 0.00635137 -0.241971 
-0.201019 0.00625817 -0.244997 -0.181498 0.00626621 -0.241979 -0.168719 0.00627251 -0.242094 
-0.231964 0.00635138 -0.239221 -0.191837 0.00628283 -0.240709 -0.243829 0.00634386 -0.231958 
-0.233075 0.00624257 -0.228687 -0.166496 0.00635057 -0.229135 -0.24472 0.00636879 -0.221971 
-0.178912 0.00624854 -0.21809 -0.234743 0.00637147 -0.213833 -0.223687 0.00626223 -0.216726 
-0.197338 0.00625283 -0.21543 -0.227305 0.00632087 -0.206902 -0.217299 0.00632481 -0.207078 
-0.172907 0.00627725 -0.200898 -0.245 0.00625475 -0.193633 -0.229743 0.00624725 -0.196665 
-0.218126 0.00624472 -0.197073 -0.206439 0.00636638 -0.189353 -0.192578 0.00637081 -0.191826 
-0.181633 0.00634972 -0.189392 -0.169232 0.0063093 -0.191188 -0.230991 0.00625832 -0.186721 
-0.244601 0.00635032 -0.180649 -0.223708 0.00626672 -0.179805 -0.204101 0.00626229 -0.178942 
-0.191834 0.00628868 -0.178037 -0.214365 0.00624456 -0.173619 -0.169055 0.00626181 -0.172176 
-0.162464 0.00633933 -0.164277 -0.24395 0.00634795 -0.157718 -0.182225 0.00634148 -0.15796 
-0.217213 0.00627871 -0.154272 -0.166771 0.00628883 -0.15486 -0.244374 0.00626954 -0.147162 
-0.224885 0.00633698 -0.147752 -0.234421 0.00632423 -0.14456 -0.211207 0.00629127 -0.140841 
-0.163204 0.00626076 -0.14317 -0.243527 0.00626618 -0.137043 -0.227055 0.00631064 -0.137765 
-0.187349 0.00634569 -0.134158 -0.234952 0.00627411 -0.128649 -0.222073 0.00634593 -0.12897 
-0.212135 0.00634725 -0.130812 -0.178034 0.00626079 -0.130428 -0.15978 0.00635797 -0.13062 
-0.245 0.00627071 -0.126731 -0.196387 0.00636572 -0.126354 -0.186432 0.00635055 -0.122562 
-0.238036 0.0062928 -0.11891 -0.228215 0.00634675 -0.12088 -0.219084 0.00634677 -0.115719 
-0.208208 0.00628274 -0.118945 -0.173462 0.00626278 -0.120007 -0.163527 0.00626489 -0.118348 
-0.244772 0.00635041 -0.111409 -0.21082 0.00626163 -0.109269 -0.230071 0.00626784 -0.105341 
-0.181545 0.00633057 -0.107273 -0.166208 0.0063465 -0.108674 -0.156081 0.00626534 -0.107334 
-0.245 0.00624741 -0.0980548 -0.200537 0.00625368 -0.101599 -0.190136 0.00635264 -0.101442 
-0.173375 0.00631895 -0.101169 -0.240937 0.00635066 -0.0885772 -0.190634 0.00624887 -0.0898131 
-0.18101 0.00635039 -0.0805181 -0.229755 0.00624889 -0.0498165 -0.162166 0.00627096 -0.0543117 
-0.245 0.0062652 -0.0222889 -0.193834 0.00634965 0.0422583 -0.209158 0.00626568 0.0492042 
-0.231179 0.00631561 0.21502 -0.213065 0.00631882 0.213838 -0.222739 0.00625129 0.227898 
-0.245 0.00634569 0.23406 -0.243302 0.00626828 0.245 -0.229996 0.00634877 0.243419 
-0.143649 0.00628962 -0.244805 -0.133483 0.00623987 -0.245 -0.122696 0.0062839 -0.244813 
-0.0527902 0.00626514 -0.245 -0.129707 0.00629038 -0.232748 -0.137525 0.00630571 -0.226333 
-0.0947596 0.00635074 -0.220104 -0.15068 0.00624992 -0.212974 -0.13841 0.00630083 -0.215998 
-0.0836447 0.00627998 -0.211155 -0.108452 0.00625243 -0.189477 -0.0986651 0.00627708 -0.191829 
-0.0816488 0.00637145 -0.192988 -0.154522 0.0062525 -0.18308 -0.117616 0.00626211 -0.173378 
-0.152613 0.0062657 -0.166043 -0.112542 0.00624752 -0.164537 -0.0960723 0.0062779 -0.167582 
-0.0667564 0.00626559 -0.165089 -0.101367 0.00625298 -0.158924 -0.11794 0.00628067 -0.155868 
-0.148572 0.00635109 -0.145296 -0.11513 0.0063174 -0.146017 -0.0558309 0.0063243 -0.147723 
-0.139695 0.00635543 -0.128314 -0.103523 0.00625989 -0.127462 -0.150695 0.00628987 -0.124087 
-0.123804 0.00626678 -0.126427 -0.110157 0.00635264 -0.118063 -0.0942805 0.00626357 -0.118337 
-0.148391 0.00631029 -0.11403 -0.123393 0.00631109 -0.112923 -0.0545414 0.0063687 -0.111292 
-0.127341 0.00635075 -0.0979475 -0.154501 0.00625839 -0.0960197 -0.150993 0.00628163 -0.0792334 
-0.0706724 0.00635044 -0.0623463 -0.13721 0.0062486 -0.056151 -0.104176 0.00633006 -0.0501183 
-0.124817 0.00624594 -0.0166381 -0.127344 0.00634164 0.0695562 -0.0776885 0.00626649 0.102869 
-0.0613897 0.0062939 0.124042 -0.13059 0.00626646 0.184139 -0.0554511 0.00634048 0.237935 
-0.149047 0.00632319 0.241903 -0.0189574 0.00626506 -0.239492 8.71187e-05 0.00629477 -0.219241 
-0.0380709 0.00631746 -0.216617 -0.0193985 0.00625059 -0.160134 0.00100262 0.00627954 -0.161882 
0.0159794 0.0062789 -0.139691 0.0350872 0.00635396 -0.095097 -0.031002 0.00633734 -0.0721148 
-0.00303211 0.0063115 -0.056939 -0.0207466 0.00634783 0.0647633 0.0109671 0.00631779 0.0979236 
-0.0108058 0.00626608 0.161781 -0.028145 0.00624643 0.19121 -0.018995 0.00627869 0.195697 
-0.00737633 0.00634971 0.201753 -0.0449215 0.006281 0.244751 -0.0130221 0.00623151 0.245 
0.0877722 0.00634981 -0.243803 0.0528153 0.00632979 -0.222783 0.0684797 0.00624797 -0.151708 
0.149374 0.00626419 -0.12866 0.0748586 0.0062761 -0.0768419 0.0849417 0.00624832 -0.0761129 
0.140718 0.00631838 -0.0677134 0.0646463 0.00636186 -0.0578753 0.0758506 0.0062656 -0.0578145 
0.0822131 0.00634703 -0.0202323 0.0738583 0.00625098 -0.000624672 0.13135 0.00626848 0.0159075 
0.0642124 0.00624968 0.105484 0.126768 0.00633683 0.130898 0.0932543 0.00634255 0.19388 
0.148323 0.00623813 0.219272 0.149698 0.00635074 0.229256 0.151362 0.00635072 0.245 
0.217466 0.00632608 -0.245 0.237612 0.00625975 -0.241738 0.234144 0.00633753 -0.229107 
0.245 0.00624817 -0.229717 0.20618 0.00635085 -0.21422 0.216603 0.00630197 -0.216718 
0.227311 0.00626175 -0.215656 0.242289 0.0062697 -0.216533 0.219552 0.00628558 -0.207132 
0.202575 0.00635573 -0.201334 0.217819 0.00635074 -0.197178 0.245 0.00626344 -0.16679 
0.189478 0.00629999 -0.157066 0.223723 0.00631781 -0.153161 0.245 0.00624621 -0.127944 
0.176824 0.00634921 -0.126655 0.231011 0.00626784 -0.111378 0.245 0.0062926 -0.0962145 
0.240282 0.00625326 -0.087121 0.245 0.0062619 -0.0781849 0.212491 0.00635853 -0.0591028 
0.222535 0.00636682 -0.0458808 0.245 0.00631855 -0.0461008 0.207465 0.00624621 -0.0370699 
0.22949 0.00634972 -0.0371842 0.220659 0.00635558 -0.032221 0.243558 0.00626229 -0.0334029 
0.245 0.00631059 -0.0220977 0.242563 0.00629866 -0.00499355 0.162806 0.00625285 0.0129023 
0.244231 0.00624133 0.0210536 0.243036 0.00626583 0.0334979 0.206326 0.00631746 0.038145 
0.209057 0.00632465 0.0713177 0.215486 0.00631776 0.0793144 0.230243 0.00627951 0.0896402 
0.245 0.00626638 0.103923 0.245 0.00634118 0.122726 0.161825 0.00624778 0.182904 
0.20582 0.0062559 0.232124 0.194804 0.00626427 0.244951 0.245 0.00632422 0.245 

VERTICES 207 414
1 0 
1 1 
1 2 
1 3 
1 4 
1 5 
1 6 
1 7 
1 8 
1 9 
1 10 
1 11 
1 12 
1 13 
1 14 
1 15 
1 16 
1 17 
1 18 
1 19 
1 20 
1 21 
1 22 
1 23 
1 24 
1 25 
1 26 
1 27 
1 28 
1 29 
1 30 
1 31 
1 32 
1 33 
1 34 
1 35 
1 36 
1 37 
1 38 
1 39 
1 40 
1 41 
1 42 
1 43 
1 44 
1 45 
1 46 
1 47 
1 48 
1 49 
1 50 
1 51 
1 52 
1 53 
1 54 
1 55 
1 56 
1 57 
1 58 
1 59 
1 60 
1 61 
1 62 
1 63 
1 64 
1 65 
1 66 
1 67 
1 68 
1 69 
1 70 
1 71 
1 72 
1 73 
1 74 
1 75 
1 76 
1 77 
1 78 
1 79 
1 80 
1 81 
1 82 
1 83 
1 84 
1 85 
1 86 
1 87 
1 88 
1 89 
1 90 
1 91 
1 92 
1 93 
1 94 
1 95 
1 96 
1 97 
1 98 
1 99 
1 100 
1 101 
1 102 
1 103 
1 104 
1 105 
1 106 
1 107 
1 108 
1 109 
1 110 
1 111 
1 112 
1 113 
1 114 
1 115 
1 116 
1 117 
1 118 
1 119 
1 120 
1 121 
1 122 
1 123 
1 124 
1 125 
1 126 
1 127 
1 128 
1 129 
1 130 
1 131 
1 132 
1 133 
1 134 
1 135 
1 136 
1 137 
1 138 
1 139 
1 140 
1 141 
1 142 
1 143 
1 144 
1 145 
1 146 
1 147 
1 148 
1 149 
1 150 
1 151 
1 152 
1 153 
1 154 
1 155 
1 156 
1 157 
1 158 
1 159 
1 160 
1 161 
1 162 
1 163 
1 164 
1 165 
1 166 
1 167 
1 168 
1 169 
1 170 
1 171 
1 172 
1 173 
1 174 
1 175 
1 176 
1 177 
1 178 
1 179 
1 180 
1 181 
1 182 
1 183 
1 184 
1 185 
1 186 
1 187 
1 188 
1 189 
1 190 
1 191 
1 192 
1 193 
1 194 
1 195 
1 196 
1 197 
1 198 
1 199 
1 200 
1 201 
1 202 
1 203 
1 204 
1 205 
1 206 

POINT_DATA 207
FIELD FieldData 3
id 1 207 int
131 2346 5794 1013 1957 5883 7911 6741 2186 
1984 6357 3538 3028 1269 1458 488 371 17 
3392 1027 603 208 1247 563 1304 1011 4783 
1048 1064 95 5831 3003 1949 47 2804 4135 
2338 3760 3738 921 7074 4561 889 6484 3566 
3629 1118 2507 6159 2301 3365 618 1820 1869 
8326 2428 2361 5380 3374 2100 3282 92 3192 
4830 6454 97 1836 2371 2533 2171 6133 1154 
7017 4486 3628 986 258 1047 1834 6251 4502 
2078 4648 553 6347 8119 575 180 1478 3341 
1172 4546 2373 1214 8483 1368 5001 187 2869 
3674 1383 4136 2221 1439 8287 1555 288 3043 
1217 378 396 4951 2623 262 2494 1930 1248 
4362 1496 755 4504 4268 2053 7899 8696 5126 
787 2559 1444 3327 5244 2449 1621 2118 3021 
1503 498 3400 7100 2195 1356 7842 809 5088 
7815 249 1545 1785 3270 1180 662 4273 3539 
56 2748 6239 1124 930 1833 1874 692 764 
3472 4356 1320 5920 4496 5071 1686 239 4318 
1625 2230 456 515 2606 8673 1859 4482 1585 
264 2151 7818 1483 386 4317 1577 1793 791 
88 305 3147 1146 2063 945 1817 2152 4661 
7117 2319 2917 4478 113 1838 1142 1379 814 

type 1 207 int
1 1 1 1 1 1 1 1 1 
1 1 1 1 1 1 1 1 1 
1 1 1 1 1 1 1 1 1 
1 1 1 1 1 1 1 1 1 
1 1 1 1 1 1 1 1 1 
1 1 1 1 1 1 1 1 1 
1 1 1 1 1 1 1 1 1 
1 1 1 1 1 1 1 1 1 
1 1 1 1 1 1 1 1 1 
1 1 1 1 1 1 1 1 1 
1 1 1 1 1 1 1 1 1 
1 1 1 1 1 1 1 1 1 
1 1 1 1 1 1 1 1 1 
1 1 1 1 1 1 1 1 1 
1 1 1 1 1 1 1 1 1 
1 1 1 1 1 1 1 1 1 
1 1 1 1 1 1 1 1 1 
1 1 1 1 1 1 1 1 1 
1 1 1 1 1 1 1 1 1 
1 1 1 1 1 1 1 1 1 
1 1 1 1 1 1 1 1 1 
1 1 1 1 1 1 1 1 1 
1 1 1 1 1 1 1 1 1 

radius 1 207 double
0.005 0.005 0.005 0.005 0.005 0.005 0.005 0.005 0.005 
0.005 0.005 0.005 0.005 0.005 0.005 0.005 0.005 0.005 
0.005 0.005 0.005 0.005 0.005 0.005 0.005 0.005 0.005 
0.005 0.005 0.005 0.005 0.005 0.005 0.005 0.005 0.005 
0.005 0.005 0.005 0.005 0.005 0.005 0.005 0.005 0.005 
0.005 0.005 0.005 0.005 0.005 0.005 0.005 0.005 0.005 
0.005 0.005 0.005 0.005 0.005 0.005 0.005 0.005 0.005 
0.005 0.005 0.005 0.005 0.005 0.005 0.005 0.005 0.005 
0.005 0.005 0.005 0.005 0.005 0.005 0.005 0.005 0.005 
0.005 0.005 0.005 0.005 0.005 0.005 0.005 0.005 0.005 
0.005 0.005 0.005 0.005 0.005 0.005 0.005 0.005 0.005 
0.005 0.005 0.005 0.005 0.005 0.005 0.005 0.005 0.005 
0.005 0.005 0.005 0.005 0.005 0.005 0.005 0.005 0.005 
0.005 0.005 0.005 0.005 0.005 0.005 0.005 0.005 0.005 
0.005 0.005 0.005 0.005 0.005 0.005 0.005 0.005 0.005 
0.005 0.005 0.005 0.005 0.005 0.005 0.005 0.005 0.005 
0.005 0.005 0.005 0.005 0.005 0.005 0.005 0.005 0.005 
0.005 0.005 0.005 0.005 0.005 0.005 0.005 0.005 0.005 
0.005 0.005 0.005 0.005 0.005 0.005 0.005 0.005 0.005 
0.005 0.005 0.005 0.005 0.005 0.005 0.005 0.005 0.005 
0.005 0.005 0.005 0.005 0.005 0.005 0.005 0.005 0.005 
0.005 0.005 0.005 0.005 0.005 0.005 0.005 0.005 0.005 
0.005 0.005 0.005 0.005 0.005 0.005 0.005 0.005 0.005 

