# vtk DataFile Version 4.0
Generated by LIGGGHTS
ASCII
DATASET POLYDATA
POINTS 8761 float
-0.244828 0.00309908 -0.244968 -0.234564 0.00339156 -0.244606 -0.211501 0.00318374 -0.244973 
-0.193913 0.0047531 -0.245 -0.177283 0.00445541 -0.244981 -0.167167 0.00223551 -0.244275 
-0.243589 0.0138958 -0.244949 -0.229142 0.0129464 -0.245002 -0.187056 0.0120363 -0.245002 
-0.160004 0.0094113 -0.244979 -0.224238 0.00434745 -0.241938 -0.202694 0.00389069 -0.240289 
-0.186485 0.00390188 -0.238325 -0.160524 0.003956 -0.236172 -0.231585 0.00856963 -0.236348 
-0.216748 0.0110825 -0.240649 -0.179232 0.0107225 -0.237415 -0.240542 0.00409164 -0.235952 
-0.223677 0.00293094 -0.231698 -0.213796 0.00312178 -0.23524 -0.195534 0.00501611 -0.233358 
-0.179728 0.00296139 -0.23032 -0.170451 0.00434461 -0.234737 -0.2181 0.0111993 -0.230735 
-0.208672 0.0130383 -0.234658 -0.235058 0.00580788 -0.227076 -0.214689 0.0027439 -0.225287 
-0.204902 0.00480984 -0.229079 -0.1887 0.00454711 -0.226023 -0.163033 0.000970141 -0.226735 
-0.244643 0.0108862 -0.229837 -0.228184 0.0132455 -0.228165 -0.210176 0.0125415 -0.224781 
-0.17442 0.011539 -0.228611 -0.156627 0.00912284 -0.225853 -0.244339 0.00393185 -0.222659 
-0.226659 0.00330424 -0.222157 -0.207372 0.00384833 -0.218482 -0.197849 0.00442762 -0.221984 
-0.181334 0.00347431 -0.219345 -0.172199 0.00319485 -0.223407 -0.220154 0.0130242 -0.220791 
-0.202284 0.0128604 -0.218392 -0.192968 0.0135065 -0.221974 -0.176802 0.012506 -0.218648 
-0.166183 0.0110337 -0.221834 -0.245001 0.00393991 -0.211805 -0.236222 0.00461993 -0.216836 
-0.227583 0.00465378 -0.21153 -0.218657 0.00410729 -0.216209 -0.199691 0.00531873 -0.211869 
-0.190113 0.00473429 -0.214697 -0.173439 0.00409407 -0.213116 -0.16393 0.00309325 -0.216134 
-0.244994 0.0125844 -0.216832 -0.229436 0.0129725 -0.21678 -0.211687 0.0130411 -0.214905 
-0.167538 0.0125269 -0.212038 -0.157837 0.0111035 -0.21518 -0.236357 0.00364473 -0.206781 
-0.218822 0.00421417 -0.20621 -0.209127 0.00451267 -0.208651 -0.182282 0.00475188 -0.208474 
-0.164685 0.00359956 -0.20617 -0.171396 0.0132393 -0.00621086 -0.229846 0.0132576 -0.206619 
-0.220782 0.0137663 -0.210809 -0.188153 0.0120184 -0.000449771 -0.197782 0.0129213 -0.00298498 
-0.17689 0.0131957 -0.208557 -0.158005 0.0132217 -0.204615 -0.245005 0.00370249 -0.20177 
-0.227668 0.00352431 -0.201589 -0.202762 0.00305419 -0.200622 -0.191015 0.00173809 -0.204529 
-0.173662 0.00358764 -0.201756 -0.156589 0.00362865 -0.199643 -0.207785 0.0124066 -0.00508257 
-0.210451 0.0108601 -0.20084 -0.195156 0.0110723 -0.20149 -0.167292 0.0118941 -0.200693 
-0.236375 0.00341884 -0.196668 -0.218138 0.00208788 -0.196214 -0.192358 0.00406163 -0.194714 
-0.183099 0.00430915 -0.198519 -0.165611 0.0034959 -0.195351 -0.164642 0.0119181 -0.231722 
-0.202572 0.0118697 -0.194742 -0.186163 0.0132609 -0.193857 -0.176919 0.012321 -0.197884 
-0.15853 0.0121562 -0.19405 -0.245 0.00368042 -0.191591 -0.227471 0.00345821 -0.191361 
-0.208777 0.00350331 -0.192559 -0.18424 0.00387141 -0.188595 -0.174648 0.00485054 -0.191294 
-0.218444 0.0120182 -0.191416 -0.194285 0.0122035 -0.188096 -0.167793 0.0120518 -0.190235 
-0.24486 0.00165159 -0.181778 -0.236292 0.00401035 -0.186689 -0.227544 0.0044147 -0.181406 
-0.218468 0.00310178 -0.186255 -0.209092 0.00369162 -0.182565 -0.199972 0.00399101 -0.187824 
-0.191795 0.00463563 -0.182046 -0.17415 0.00467176 -0.181166 -0.164806 0.00405339 -0.184909 
-0.244847 0.0125261 -0.18693 -0.185687 0.0135886 -0.182557 -0.157663 0.0122149 -0.184084 
-0.236686 0.00492385 -0.176743 -0.21883 0.00460244 -0.176355 -0.200513 0.00313356 -0.177383 
-0.183331 0.00676506 -0.17555 -0.164455 0.00355398 -0.174924 -0.244993 0.0105178 -0.176614 
-0.181201 0.0127113 -0.00809349 -0.210029 0.01248 -0.177244 -0.192801 0.0131214 -0.175544 
-0.244953 0.000868618 -0.1718 -0.227721 0.00399711 -0.171409 -0.209748 0.00383988 -0.172208 
-0.192127 0.00381764 -0.171748 -0.173536 0.00518062 -0.170524 -0.201797 0.0130107 -0.171177 
-0.158424 0.0133913 -0.174148 -0.236595 0.00388034 -0.166803 -0.218896 0.00462805 -0.166351 
-0.201062 0.00350525 -0.167253 -0.183558 0.00328575 -0.166147 -0.165109 0.00335625 -0.164948 
-0.245001 0.0126312 -0.166674 -0.245004 0.00266096 -0.16154 -0.22764 0.00415495 -0.16139 
-0.209996 0.0032838 -0.161981 -0.192643 0.00342164 -0.161696 -0.174929 0.00241566 -0.161005 
-0.15686 0.00343431 -0.158869 -0.236426 0.0125028 -0.161534 -0.18292 0.0135594 -0.161282 
-0.16935 0.0111001 -0.160236 -0.236288 0.00301908 -0.156487 -0.227778 0.00270933 -0.151232 
-0.219146 0.00279452 -0.156291 -0.210169 0.00282463 -0.151856 -0.201408 0.00431579 -0.156956 
-0.192875 0.00451644 -0.151672 -0.183853 0.0026371 -0.156175 -0.166197 0.00253506 -0.155038 
-0.227819 0.0130207 -0.15647 -0.16089 0.0123982 -0.154256 -0.244986 0.00363235 -0.151591 
-0.236439 0.00398085 -0.146395 -0.218938 0.00167355 -0.146297 -0.201756 0.00531278 -0.147006 
-0.184386 0.00272835 -0.146192 -0.175373 0.00192695 -0.150866 -0.15796 0.00379925 -0.14894 
-0.244999 0.0127159 -0.14611 -0.236429 0.012712 -0.151268 -0.227984 0.0112831 -0.146083 
-0.219183 0.0125719 -0.15145 -0.210492 0.0118764 -0.146554 -0.182203 0.0112237 -0.151182 
-0.169863 0.0105655 -0.150211 -0.244998 0.00153162 -0.141668 -0.22791 0.00241465 -0.140958 
-0.209295 0.00418003 -0.140277 -0.193294 0.00496727 -0.141692 -0.176055 0.0027261 -0.140665 
-0.167112 0.00218053 -0.145097 -0.219152 0.0115965 -0.141385 -0.181711 0.0114221 -0.141189 
-0.17037 0.0111931 -0.140245 -0.161046 0.012304 -0.144258 -0.236604 0.0037431 -0.135736 
-0.218687 0.00224662 -0.136211 -0.200423 0.00458163 -0.13464 -0.185063 0.00340654 -0.136238 
-0.167934 0.00320625 -0.134715 -0.158965 0.00252422 -0.139076 -0.244109 0.0112125 -0.136234 
-0.228313 0.0111121 -0.136034 -0.162257 0.0116426 -0.133891 -0.244997 0.0032987 -0.130169 
-0.227804 0.00263227 -0.130743 -0.2095 0.00477923 -0.130296 -0.191906 0.00440183 -0.128986 
-0.176949 0.00328966 -0.1304 -0.160096 0.00340992 -0.128489 -0.219869 0.0123034 -0.130778 
-0.184828 0.0127396 -0.129452 -0.171749 0.0120348 -0.130378 -0.236144 0.00548028 -0.125437 
-0.218281 0.0038218 -0.125609 -0.200993 0.00421074 -0.124654 -0.183547 0.00283603 -0.122905 
-0.169097 0.00235205 -0.124245 -0.245018 0.011808 -0.124057 -0.228414 0.011831 -0.12562 
-0.176571 0.0099514 -0.121869 -0.164016 0.0116726 -0.124048 -0.244953 0.00225447 -0.119949 
-0.236566 0.0049184 -0.114811 -0.226996 0.00299776 -0.120773 -0.218559 0.00330239 -0.115317 
-0.209906 0.00480222 -0.120138 -0.192551 0.00470768 -0.118986 -0.175373 0.00166356 -0.1164 
-0.161499 0.00254254 -0.117647 -0.229087 0.011588 -0.1156 -0.166988 0.00431946 -0.00186419 
-0.185776 0.0125807 -0.118853 -0.156616 0.0112738 -0.11733 -0.244627 0.00303664 -0.108927 
-0.227699 0.00232514 -0.110783 -0.201543 0.00454792 -0.114624 -0.184662 0.00320302 -0.112977 
-0.167774 0.00153167 -0.1099 -0.244955 0.0117486 -0.113919 -0.220329 0.0125 -0.110905 
-0.176794 0.00400368 -0.00377288 -0.186547 0.00381723 -0.00594957 -0.17804 0.012521 -0.112317 
-0.168457 0.0109956 -0.115115 -0.219319 0.00289172 -0.105248 -0.210205 0.0033659 -0.109358 
-0.193364 0.00400699 -0.108124 -0.177131 0.00243998 -0.106389 -0.236905 0.00856039 -0.105267 
-0.212256 0.0126155 -0.105037 -0.203144 0.0127506 -0.109141 -0.187121 0.0119759 -0.108164 
-0.170717 0.0101224 -0.105412 -0.244699 0.00503708 -0.099041 -0.2287 0.00318598 -0.10085 
-0.211216 0.00450419 -0.0992079 -0.202047 0.00414981 -0.103172 -0.186064 0.00332355 -0.101215 
-0.169743 0.00210363 -0.0995169 -0.160261 0.00311724 -0.102931 -0.222454 0.0123133 -0.100888 
-0.204838 0.0129342 -0.0983623 -0.195495 0.0122079 -0.102631 -0.179517 0.0108674 -0.100701 
-0.23609 0.00358427 -0.0941227 -0.220427 0.00423611 -0.0953332 -0.203853 0.00457578 -0.0921655 
-0.194719 0.00396076 -0.0962429 -0.178825 0.00340416 -0.0940257 -0.162666 0.00194111 -0.0924545 
-0.244635 0.013235 -0.0916762 -0.203008 0.00375279 -0.000641699 -0.197659 0.0130078 -0.0914183 
-0.18851 0.0125052 -0.0954061 -0.172188 0.0108618 -0.0934567 -0.244913 0.00241782 -0.0893855 
-0.226873 0.00399401 -0.0876958 -0.213164 0.00493889 -0.0884431 -0.196658 0.00493667 -0.0851367 
-0.187554 0.00406702 -0.0891945 -0.171667 0.00316329 -0.0870105 -0.207163 0.0134233 -0.0882377 
-0.181256 0.0129992 -0.088545 -0.164002 0.0101982 -0.0869712 -0.236121 0.00616696 -0.0844598 
-0.21955 0.00509379 -0.0807336 -0.20597 0.00472954 -0.0814995 -0.180639 0.00393229 -0.0811024 
-0.162434 0.00149097 -0.0813979 -0.245003 0.00796302 -0.0802303 -0.226146 0.0125421 -0.0818148 
-0.199691 0.0132252 -0.0804332 -0.190423 0.0130589 -0.0843646 -0.238295 0.00260355 -0.0743401 
-0.228997 0.00330782 -0.0779501 -0.211951 0.00575028 -0.0735157 -0.199391 0.00474236 -0.0739376 
-0.189961 0.00350952 -0.0770198 -0.171626 0.00208417 -0.0770638 -0.213836 0.00456264 -0.00254639 
-0.165571 0.010053 -0.0770518 -0.231528 0.00310552 -0.0669263 -0.221728 0.00356064 -0.0710553 
-0.192713 0.00468058 -0.066381 -0.18194 0.00448858 -0.0711264 -0.172398 0.00293373 -0.0670308 
-0.163387 -6.15536e-07 -0.0708328 -0.24498 0.00998265 -0.0703392 -0.228183 0.0111739 -0.0718309 
-0.17458 0.0110902 -0.0726537 -0.190947 0.0129659 -0.0103174 -0.243393 0.00113389 -0.0645056 
-0.214749 0.0041517 -0.0638489 -0.204907 0.00447049 -0.0656018 -0.180499 0.00426511 -0.0612333 
-0.161623 0.00140611 -0.0603729 -0.221581 0.0119854 -0.06435 -0.186428 0.0124639 -0.0655521 
-0.175178 0.0127672 -0.0626492 -0.164809 0.00973334 -0.0649874 -0.244924 0.00143824 -0.0544402 
-0.235126 0.0021624 -0.0570335 -0.22393 0.0031914 -0.0600035 -0.208283 0.00405956 -0.0561046 
-0.198327 0.00364357 -0.055342 -0.188337 0.0035248 -0.055073 -0.171129 0.00487744 -0.057269 
-0.241153 0.00980368 -0.0596408 -0.230528 0.0107019 -0.0600836 -0.204468 0.0130625 -0.0599838 
-0.194379 0.0118236 -0.0595209 -0.164169 0.0130307 -0.0553247 -0.227724 0.004958 -0.0509246 
-0.21732 0.00477945 -0.0518943 -0.17855 0.00465947 -0.0505327 -0.158659 0.00298433 -0.0509027 
[...]
POINT_DATA 8761
FIELD FieldData 3
id 1 8761 int
39 4391 7057 35 3511 1775 6199 7900 3558 
1819 66 55 30 200 25 4427 936 40 
1799 4449 920 169 1081 1777 7959 3566 1760 
52 925 919 5298 7071 3522 37 7025 2653 
3538 905 151 939 1038 6194 5315 5296 2688 
4418 935 11 934 906 3524 890 944 1759 
4396 7063 7079 1909 4587 913 3567 3570 900 
1988 6152 5322 7944 2647 6173 2693 3659 48 
2686 2663 1771 1806 1804 3551 5278 2651 2677 
1762 891 32 1758 1104 3531 4388 3537 5297 
5299 33 62 61 896 2687 3545 4389 4406 
7038 7 2662 885 1812 67 34 1800 165 
7933 2689 3645 56 1781 879 2697 45 3529 
4459 2632 3564 3520 1786 892 51 24 2656 
7043 878 887 883 1795 222 3569 1816 1818 
884 63 1091 1974 31 4448 3706 3 2696 
4444 2646 1809 64 1045 1059 4401 1963 1776 
18 901 940 2681 2690 1966 4447 1784 4420 
5320 4437 2661 1982 1805 914 881 1772 1076 
1912 3510 2670 1890 2818 1821 1768 1770 1790 
902 1949 4393 5309 2822 19 886 1755 17 
1773 1100 1780 3573 2660 895 1798 164 1101 
1782 3517 1822 2637 3571 41 15 1796 3513 
1810 49 204 146 5329 1811 4440 3720 43 
58 1765 1792 915 2682 3568 1077 924 5307 
1761 910 5 1802 880 59 2679 4413 4392 
4574 1791 1779 904 943 3562 1787 47 3514 
4424 2685 2683 1803 27 2636 1814 908 1063 
4426 10 3554 5292 23 1 46 1788 941 
1778 16 4435 3544 1935 44 889 8 894 
196 4397 3553 2659 4442 1801 2673 2658 2698 
20 912 918 4441 921 888 2669 899 933 
1016 2675 4417 4394 7895 932 36 4 29 
3527 5274 2684 4411 3546 1766 2640 911 9 
219 893 53 6172 3575 3572 2695 5313 1789 
50 928 186 7018 3526 5263 2676 1763 923 
922 1820 21 2671 13 3550 2844 1764 2654 
12 233 1110 1987 1774 3563 3525 2643 2633 
22 1785 65 1797 929 102 4390 4405 1817 
1029 2766 3678 1815 907 903 26 1056 4403 
1808 4410 1794 3548 938 57 978 14 1087 
3518 2648 4430 2834 3540 93 926 1783 2639 
937 1756 917 1051 6203 2652 4431 4446 3543 
930 54 1769 931 251 1976 3512 6293 927 
5327 5314 4439 3552 5275 2793 3547 3536 3534 
5311 4434 6198 6185 5304 5270 3530 3523 2666 
1767 3557 4415 3631 3516 6155 4598 7037 1947 
3574 3577 4386 4404 4443 3555 3542 6149 4407 
2657 5264 3560 5273 6156 4409 4421 3515 6187 
3565 1951 2649 5282 2667 2678 3533 2674 2694 
4436 7909 3559 3539 2635 3532 2638 3561 2644 
2650 2672 3528 897 246 1184 962 2692 7094 
7023 3615 3629 2668 3709 108 6 916 80 
295 1114 1757 3639 6223 3614 2750 7075 942 
131 995 946 91 1886 4514 5336 3583 83 
1846 119 85 2744 969 8009 5348 3599 3606 
5341 1116 1882 81 3630 134 2761 302 2727 
5373 5335 3593 970 1841 77 97 4469 4482 
2753 2755 2891 975 2701 2757 2719 3624 3800 
3611 6211 4485 4717 1843 1004 2736 949 1850 
1842 115 1006 1877 7141 2729 4464 2869 6440 
3637 1849 1884 90 2731 5361 3613 3585 4500 
118 1836 973 1864 2704 2881 4486 1867 4458 
69 991 117 95 2930 6258 4479 2703 5342 
70 3592 89 1847 1878 4487 7120 4462 72 
959 1829 1834 1854 1887 1863 1003 2743 5365 
3617 5395 961 3820 2717 979 1001 986 255 
252 5332 4471 4463 945 1866 74 1835 4455 
2702 3597 4494 2754 2008 75 1837 2741 3579 
988 1868 2762 109 1144 3595 948 2705 92 
2708 1855 2078 5392 1862 4496 113 2723 1879 
998 2732 4465 3612 1146 2763 3797 2885 994 
1876 2718 1825 1872 2042 966 5381 6270 1859 
1200 107 120 5380 3623 4503 6268 957 987 
1002 2057 989 950 3582 4473 82 112 997 
2735 2714 974 7975 1848 1119 2745 101 129 
1861 104 951 1869 100 971 1881 1833 980 
132 3580 2951 1826 1009 2720 1873 964 123 
293 7138 5376 3591 1830 2713 2716 2707 1874 
2739 1865 122 86 1845 4476 99 121 996 
1181 5330 4495 309 5357 1206 7144 111 1832 
105 1883 1851 1149 7127 1870 133 2751 953 
1008 116 78 984 1831 3641 128 2710 3620 
3616 130 103 976 1010 960 1858 2924 4467 
2962 1857 106 114 993 2028 1999 7973 5390 
4513 5394 4501 4512 110 947 1880 1824 84 
124 4466 5334 2725 1000 965 71 963 2728 
2748 981 2740 4475 2749 3610 2737 1828 1827 
125 2894 985 3628 5346 977 992 1839 1860 
2764 98 1991 3640 4477 2024 73 1852 2738 
2756 88 3601 7980 6251 5360 3635 94 1888 
3633 958 983 126 79 4489 2948 1005 2730 
1007 972 76 1155 7148 1875 4491 5385 967 
3578 4481 3621 3589 4507 6239 7112 4511 4484 
3608 3763 4453 3600 5351 4508 2878 3604 3586 
3632 4510 2081 6243 7124 3584 4502 4516 1793 
4504 5353 4518 4506 2722 4478 3581 2709 1856 
2711 7986 6222 5387 2760 3625 954 87 1853 
2699 5363 3598 952 8204 1840 5533 4480 2963 
4492 4460 3587 968 1885 8156 5349 2721 6469 
3596 3636 5377 5355 2742 7031 7056 4451 7963 
7915 6153 7911 4425 7951 7180 7030 7294 6166 
7923 7949 42 6312 7070 4540 6145 7076 7956 
7074 7919 7962 4419 5405 7068 8103 4412 5281 
5265 6176 7247 7161 7168 7199 2665 2645 6159 
7082 6154 7046 7941 6186 4399 8063 7033 7078 
7898 4450 7920 2641 6163 7910 6340 7948 2664 
6204 5269 7073 8076 7083 7040 8108 5302 7017 
5268 5321 6158 8116 7029 7235 3556 7967 4429 
7952 6197 4402 6295 5280 2655 6182 7175 6160 
5308 5305 7058 5300 5418 8038 5323 3541 7042 
4422 7921 6196 8086 7022 7958 7906 7935 7939 
6174 5457 6147 7936 5319 7059 6168 7913 8101 
7907 3549 7932 6140 6344 5448 7954 7143 3519 
4583 7918 6178 5301 6190 6162 2865 2642 6348 
6161 7089 7953 4438 7024 5286 4400 7077 5283 
5438 7062 6179 6180 7979 7021 7061 6148 4433 
6171 7034 7917 6167 2680 5276 7041 5284 5279 
7215 7902 7950 8098 5295 6201 7903 4416 7072 
5310 5415 7905 7055 7908 7066 7961 7049 7897 
3685 5266 6306 8092 7213 6192 7053 7081 7032 
7934 5291 6142 3670 5303 6183 5306 6164 4414 
5318 5272 7896 8042 7171 6193 7914 6189 7912 
2691 3576 5293 6184 7150 7929 7048 8111 3521 
7937 7065 3509 5317 5290 7036 7930 6150 4603 
7069 6169 6165 6143 7045 7218 6200 7924 7947 
5312 6151 4408 7945 7165 7922 4428 5277 4445 
4551 6292 7027 6181 7186 7928 6351 6305 7020 
7039 5271 7942 5289 5288 6141 7899 7052 6232 
8023 5294 7916 5328 6144 5316 7047 7080 6307 
4398 7931 7957 6157 5326 7207 7904 7067 6177 
7035 6146 6175 7946 7943 7051 5324 7955 4432 
7054 7926 7060 6202 3726 6206 7162 4452 5285 
5267 7960 6195 5325 6366 7901 6191 7192 7064 
6300 7925 3535 4395 7050 6188 7940 6170 4423 
5287 6256 7938 5362 4623 8126 6475 4499 6217 
6209 4387 6205 6265 8013 6260 8087 8179 7969 
4490 7966 7026 8027 8206 5575 7103 5338 6252 
7327 7290 6228 7985 7122 8008 4639 4647 6395 
990 1871 5379 7984 7096 6474 6261 7927 7087 
6298 7994 6241 6257 5388 5393 4461 7278 7105 
7277 8011 8002 7113 6233 7971 7097 7147 8154 
6219 8054 6271 1838 5369 8226 6242 7084 8219 
8225 8216 7988 6237 4498 8020 6214 6405 7106 
7095 8169 3590 7259 7135 7136 8022 7090 4718 
7345 6266 7970 5333 6426 7107 7993 8228 7311 
3638 4497 6240 7128 7992 5331 6208 8018 4667 
8217 6466 6210 7264 5364 6253 7140 6259 7976 
4505 3642 7133 7964 8017 8003 5371 5378 4472 
8006 7137 7109 7132 6216 5526 8172 8182 7121 
7134 5339 7126 5383 7999 6227 6255 7330 7987 
6272 4515 6247 7123 7139 7292 6218 5344 2747 
5370 7104 6244 4670 7996 7092 7145 6263 2752 
7978 3588 7117 7989 8029 6264 7296 7267 7116 
7102 4470 2746 7995 4456 5389 8178 7129 8189 
8025 3619 3626 5359 6225 6230 8007 7974 7130 
7284 7300 3605 5382 7110 6236 5356 3602 4671 
8024 8015 8028 5368 7115 2715 2733 2724 5358 
6249 7972 7093 6224 6262 4517 6448 5386 8171 
6246 7119 8010 5350 7968 3793 5340 8016 8221 
3594 3607 6221 4483 6267 5372 6213 7146 5391 
7265 8186 5366 7086 8012 7088 5352 7111 4680 
4488 8004 7998 8183 7098 982 7099 7114 3643 
6406 2712 8001 4493 7108 8000 7091 8174 7272 
2706 8196 5375 7965 4457 5347 6220 7335 7991 
1823 7983 5343 2726 3603 5374 6269 8019 8177 
8220 7149 7131 6245 5345 5560 7301 7142 6207 
7118 5367 6250 4454 6254 6234 7981 7990 6226 
6238 7085 5555 3618 6388 3622 6248 6215 4509 
7997 4696 6439 1844 6212 3634 4468 6229 7100 
7125 8014 8026 6235 5337 2700 7101 5354 3609 
2734 8005 6231 5517 3627 4474 7977 155 2823 
1018 909 232 144 1290 7019 1902 7189 5493 
5681 1813 2824 3063 898 1943 1097 216 2634 
6357 1221 170 198 1019 1898 218 2775 2118 
1014 3703 2781 1013 1084 1972 1917 1108 1953 
1980 2811 3652 2788 2842 296 3762 4535 7178 
1944 180 1973 1047 1035 1942 1078 3697 2821 
3700 2854 1957 2782 1903 1012 1070 3681 4593 
3741 5505 300 3021 1926 203 1037 2841 220 
139 1948 1040 5420 2861 3718 1011 1967 1057 
1049 1918 2094 3649 3664 3739 2005 4739 1938 
1985 1956 163 235 224 345 4548 3730 2803 
4584 2986 2827 201 3698 1073 136 2846 1025 
3724 4519 1080 2140 150 1979 1893 223 182 
256 1072 2850 1050 2767 1065 2797 1096 1939 
1039 197 1112 2945 1962 1928 205 154 185 
1920 2783 3692 1959 3712 2897 214 211 1910 
195 3714 176 2848 1027 1897 2959 2893 4544 
210 183 2 221 1043 1026 1107 1111 1925 
3696 4532 3721 3716 2953 3736 1023 202 3699 
1044 1020 1064 1927 184 3648 2805 6318 2860 
303 3672 234 1986 1958 1048 4579 243 2800 
5495 1936 3682 3017 2857 1915 1940 1092 174 
189 209 175 4528 2776 2773 2815 3725 1931 
1034 213 171 1106 1896 1067 4571 2836 3694 
2804 2795 3661 2789 207 1094 2849 1075 1030 
1889 3715 1937 2862 60 143 141 135 2786 
1109 1041 212 4523 3691 3667 3704 3662 4582 
173 1952 1083 2833 2099 4568 2774 4588 2835 
28 882 1028 190 208 2856 1071 1960 1964 
2765 4589 4556 5492 2770 1088 2807 3723 1904 
1924 177 391 1954 3695 4612 3651 137 1945 
191 159 7249 1894 4549 5488 1052 1074 217 
206 167 172 187 1242 1984 1169 2852 149 
1086 1079 1099 157 1082 1036 4615 2780 2831 
5398 4564 142 1062 1968 1933 229 1965 3828 
1911 4547 2772 2840 2853 227 38 215 193 
1042 1977 1058 1950 2809 4561 2801 194 145 
1969 3693 1899 181 1090 364 3702 2784 5463 
162 158 2855 1046 3674 147 168 1017 230 
1807 4533 4609 2052 1921 2123 179 2817 140 
1033 361 4550 5446 3658 2787 1021 1895 3690 
1955 1060 1031 188 3731 1975 1102 156 325 
2798 5467 1978 5468 4539 1268 199 1971 1900 
2845 1105 138 2779 3701 2886 4595 3710 3677 
2806 192 166 178 2825 1085 1093 1983 4578 
2858 433 1117 4553 2826 1981 1930 160 225 
2812 1066 1248 2810 2769 3708 1961 153 1922 
1916 228 1934 1892 1069 2802 1054 3673 4606 
1923 3727 2859 3669 1907 1946 1970 161 279 
1015 1089 1237 1932 3738 1068 1901 3722 3705 
1055 1905 1095 7242 2816 3740 2778 1919 2863 
5487 6544 1891 1989 4573 2838 5673 2843 1929 
2768 3711 3744 6373 2851 4537 5454 2799 4563 
2837 2796 2771 6283 2808 1913 3650 4552 5460 
6320 4611 2830 2832 4555 3653 3660 5429 3646 
4586 3728 2864 2828 5436 2813 4599 3742 3743 
3647 2791 3729 2814 4567 4565 4543 2785 3687 
2792 5482 2829 3065 3737 2790 3665 1941 2819 
2794 3675 2777 4569 1908 2070 1209 2025 2086 
2887 2221 4721 2077 2888 2938 3777 2084 96 
274 1134 1168 269 1199 257 4682 1906 3796 
4676 4705 2087 1211 254 3799 2006 4711 2932 
2867 3832 6463 5554 4637 4023 1166 237 335 
1124 286 1183 2007 3843 2254 2919 2937 2960 
2941 4634 4715 1197 2036 1121 338 3813 3752 
2942 2915 2925 3753 2026 2901 320 2056 1133 
240 322 1382 3768 5561 6375 1995 2073 1213 
271 2072 1126 273 1361 3784 3748 4712 2889 
2247 4032 1125 1098 1118 2896 2053 1406 306 
2913 3807 5569 2902 6397 68 2956 1177 321 
4923 2935 3837 4626 3805 2033 2961 2014 290 
2071 536 4649 3759 2016 3163 326 2054 2061 
248 1993 276 3754 2916 3834 3801 3999 241 
1198 1153 242 1148 2058 238 1387 2064 3746 
955 1990 1191 317 2955 1193 2015 3124 1174 
1178 337 311 333 1161 1192 3767 4689 4625 
1340 5571 336 247 2911 339 272 498 2866 
3760 2920 3745 2940 1182 2906 2035 1131 1202 
503 2954 3842 4646 2207 312 297 244 1140 
282 451 3757 2943 3779 2079 2011 2048 259 
304 307 1160 1189 1195 1357 2045 1201 4650 
3783 3788 3833 4034 268 2074 315 1992 267 
324 3791 2020 1998 3766 3785 281 328 1137 
3749 2890 2909 2882 3775 2004 1154 1175 1167 
1122 323 2031 319 2010 2936 4657 2957 2030 
4700 3829 330 291 1170 2051 313 298 4632 
2047 2069 2918 2034 332 1128 1142 262 2018 
258 4710 2908 5543 1212 3769 278 316 1188 
1145 2076 2870 2884 2895 2060 3840 329 1165 
2041 2023 1115 4628 3839 2875 2947 3750 1147 
2067 308 2040 2899 2088 2872 2898 3821 270 
2083 260 1120 2917 2062 275 1152 1173 3751 
4697 3815 2883 4630 2871 1185 314 1194 1186 
327 2049 508 2873 4651 2082 3817 5577 1158 
1162 236 2063 2900 2037 2876 3819 2002 1190 
266 253 1156 250 284 2874 2038 3812 2922 
5539 2001 1138 1204 1113 2059 1135 1176 289 
2904 3827 4681 2965 2055 2066 277 2039 1214 
1179 1196 331 3755 1157 5536 2892 999 287 
1127 1171 2758 3844 2964 2044 2879 1376 3966 
1203 280 1208 1164 1141 2080 1329 3835 4656 
2029 3836 5564 3822 305 127 2012 1172 1143 
2043 265 2019 2929 2089 2927 3772 4662 2966 
2003 1187 2032 4661 3771 1180 2000 2022 3761 
1996 2021 3789 482 530 3826 4716 3778 4688 
1130 1129 1123 285 301 294 264 2046 261 
2931 3806 5566 3780 7348 4698 6431 956 239 
2944 288 6442 4707 1136 1151 245 1207 1139 
1205 1159 2928 3810 2946 3747 2950 2934 2075 
2926 4653 2905 2017 2921 2065 3774 3676 2910 
2068 3845 2880 2013 3838 2907 3824 4660 2933 
1994 4695 2273 3782 3113 3809 3803 3798 4853 
3773 1163 4669 4685 3795 4666 3756 2949 4643 
5521 6434 8227 6387 8066 6286 6491 7174 6353 
8093 7170 8128 8271 7205 7237 6275 8298 8238 
7177 4590 6358 6282 4631 8123 8104 7176 6289 
7224 8043 6276 4576 7216 4546 4596 3686 7248 
7204 8030 7201 8055 5486 5443 7395 6281 7163 
5478 5406 4530 4575 5466 7198 4581 7209 8069 
6346 8109 5421 5440 6302 5403 8119 8263 8057 
4602 6309 3684 8070 3732 5496 6303 4610 8050 
7182 6277 4531 3688 5428 5470 5462 5452 7202 
6574 8059 7160 8253 4559 4608 4566 4619 6341 
6361 5414 8255 5461 6321 8051 8125 8048 8036 
4580 4527 5475 3644 5425 7155 5679 8032 7187 
7044 5476 3713 7227 6454 6374 8124 4604 6342 
5453 4605 7230 8100 5427 7219 6557 8192 6301 
7245 3717 6273 4542 5479 7157 5442 6364 3668 
7196 7210 8044 6370 5404 5693 6284 7232 8068 
7200 8288 4784 5459 7243 5434 6350 7167 8090 
5413 5458 6313 8035 7225 4536 3671 7159 5480 
6367 7208 6569 6369 7194 8045 6362 8088 7449 
3735 6290 7233 5449 5410 7169 5412 6294 6274 
8049 6285 8273 6390 6372 5473 4534 4617 3663 
8099 5447 4614 5485 4620 4618 5483 7173 7217 
5419 7195 5423 5433 7190 6502 8110 6359 8102 
3680 5455 4585 3689 6288 7152 8053 8285 8299 
8046 2820 5399 5456 4525 5469 3734 5621 8039 
8262 4560 4613 5407 5439 4776 7181 8095 5464 
5401 8107 5396 6354 7158 8034 6363 7166 5426 
6310 8040 7425 8056 8073 6279 7239 8114 7154 
4591 7185 6343 8067 8112 8121 8117 7179 8113 
7258 3656 6347 4616 7221 8085 6325 4520 7339 
4522 6328 5397 8130 5437 3655 8293 6291 8105 
8079 5435 8122 5481 8047 6297 5408 6331 6311 
8089 8074 8115 8031 7184 3707 5416 6280 4597 
4570 8097 6326 7246 5402 6360 7183 4679 4577 
3719 7222 4601 7197 5490 4545 3683 7228 7240 
5484 5450 7250 5422 3657 6299 8058 7164 7206 
4791 8075 4572 3802 6329 4524 5489 7212 5465 
3679 4817 5491 5411 8120 7229 7211 7380 6319 
8052 8091 7188 4541 5441 6308 6335 6296 5471 
4554 4772 7156 7203 5474 5430 3733 4600 8064 
8078 5424 6355 8080 6352 6317 6356 8062 5451 
5445 6339 4736 8106 8072 7151 8037 7223 7153 
6278 6322 6324 4562 4592 6332 6371 8083 6336 
3654 7193 6323 4538 8096 8127 7214 7244 8129 
7226 6349 8118 8084 4529 6337 6304 4607 7172 
5444 3938 6316 8077 8094 4594 6314 5477 5417 
5472 6327 4557 7231 5432 7234 8247 7191 7403 
5494 6334 7241 5409 5400 4693 6345 6455 8065 
2839 6368 7338 8434 6330 8081 4640 7518 8041 
6470 5540 8201 5508 5586 5532 4526 6338 8060 
8415 5572 6428 5513 4678 6443 5522 8153 7309 
7324 5527 4633 6382 6635 8061 7313 7236 7266 
7460 8363 7432 6603 5563 7286 8214 6414 4673 
8207 4701 7307 6457 7287 7546 3792 3841 2050 
6461 5583 4720 8398 8132 6403 7304 7303 8139 
2085 4622 4684 4874 5507 5516 3816 7317 7337 
8209 7346 8380 6666 7269 5567 5595 6416 8386 
6451 4668 6644 7323 6418 6429 8231 8185 6378 
6471 7273 6467 2952 7326 7298 8194 5594 6435 
8423 8155 7336 3831 5570 5590 3770 5557 7282 
3776 6391 5546 8168 6389 8352 5547 2759 2027 
4674 6459 6385 4677 7276 6401 7350 8342 8385 
6458 2877 8166 4708 6425 8193 5581 6408 3781 
8160 5718 6415 6450 8230 7349 8137 6377 7271 
8170 8190 8191 4692 7268 3765 8141 5732 7283 
5519 7340 7477 8372 7289 5538 5531 3814 7255 
7310 7982 6393 7295 7297 7551 5530 5502 5510 
6436 8199 7332 8175 7509 8165 7281 7252 5596 
4703 5528 6400 6472 3787 8152 7347 5548 6386 
5503 4645 4702 4694 4699 4687 7275 6410 5550 
5549 5512 5497 5537 5544 6473 5500 6462 7305 
8223 5515 8163 7279 7334 8136 3786 5552 5589 
5506 5580 6379 4621 8164 7315 8138 6437 8150 
4659 5542 7253 5588 5534 3804 5559 6468 5504 
7263 7280 8205 6444 7333 6464 7299 4627 6399 
8184 5518 7321 7260 6396 7351 6433 8142 5529 
3764 5520 3758 4672 4891 8218 7274 7489 6383 
3818 5591 5558 7341 2210 4691 7251 3975 8149 
5551 6427 8213 5574 6460 6441 4719 8173 5556 
3794 4654 7306 6412 6419 8375 6445 5553 4704 
8208 4709 7325 4686 6449 6392 7270 5592 8181 
4636 6447 5573 6421 4713 7262 7254 5545 7342 
7285 5499 6409 5587 4690 5579 5578 8378 6423 
6476 8143 6432 7526 5498 5509 8188 6384 5576 
7312 8180 8135 6394 8379 5717 4629 7314 7291 
5565 6452 5584 6430 7261 6411 8176 3811 4664 
4642 5501 5585 8134 7302 4655 8131 8336 8412 
3825 4706 3830 6413 6380 6422 8167 8161 7329 
6456 5511 6376 4683 5525 7331 7293 7308 6420 
2912 8133 8187 5541 4658 5562 8157 6453 5593 
8198 8148 7318 7322 8158 4714 4652 4638 8146 
7469 6381 4675 5535 4665 4842 8147 8203 4644 
8159 2868 2903 8224 4641 5582 5514 7344 7328 
7319 6404 8195 6402 2958 6407 6417 4624 4635 
7316 8222 7257 7256 5523 8210 8212 5384 3823 
8140 7343 5568 6438 6465 3003 7366 2124 346 
1266 1229 4748 386 3913 396 8317 8278 5645 
3936 3020 2120 4951 1316 2185 406 4792 1022 
1061 2996 1314 4805 1459 399 3026 1032 3025 
367 1276 3043 1228 2155 1264 2166 3930 4757 
3856 3933 5672 426 3046 8242 4750 1053 1286 
2129 405 5688 5692 6568 3042 3892 3911 1301 
3052 2141 1251 360 2186 1304 3039 4803 1351 
152 2100 2152 1224 3033 427 359 352 4737 
2139 3875 3051 3040 8326 402 1217 3905 403 
2180 1283 2090 2154 3928 5667 4723 5659 3019 
3068 1303 3010 3000 2125 3855 2994 1256 2990 
3874 3004 469 417 2159 1279 358 1299 393 
351 1309 4745 3896 3878 231 2172 1277 439 
431 2168 1260 429 3877 2105 3947 3865 4747 
1292 2095 2163 381 411 1914 2149 1366 3870 
3931 3888 1219 3015 4724 374 400 3028 2113 
2133 2138 2362 3941 3907 1285 1302 2109 2183 
379 2847 4785 2992 2967 2134 3023 2191 3927 
4778 1262 1236 369 1259 1230 398 424 3045 
3054 3058 2150 3916 365 441 1223 1261 1272 
3002 3902 2103 3880 1271 384 349 1273 1220 
2110 1244 2153 2989 3862 4729 1284 2143 4952 
375 148 2126 2187 357 1278 368 2146 3891 
2993 4822 1250 376 2182 340 350 3066 5650 
3890 3945 2997 4755 389 410 3863 2114 1231 
1240 2982 3847 4794 3858 370 394 2999 3909 
2165 1428 1269 1234 2975 4731 2974 2145 2995 
1312 430 1232 1247 2167 2971 2158 3032 4783 
4733 3036 2161 3848 1255 2156 1296 3894 418 
5674 3882 3883 3062 2119 1245 1291 408 414 
401 2104 4762 3873 3923 3850 2097 6493 371 
2111 412 3001 1226 378 3175 3908 2170 3031 
2117 226 343 1222 2157 1297 2181 1257 5605 
4823 3050 3061 1274 2130 425 1233 434 344 
2976 4889 1238 3897 3008 4798 4741 2108 1313 
2174 1243 2137 3013 2101 3854 2136 2106 3049 
2132 373 413 1253 404 428 2169 3895 3048 
3889 1275 3901 436 409 363 420 421 613 
2980 2969 3047 2098 4787 4811 356 354 2188 
377 2988 2972 3904 4738 4764 3037 1024 2127 
1287 1239 1288 1305 2171 342 3926 3846 3067 
3868 1227 1306 347 2985 2190 3057 3910 3884 
4767 2107 2160 2096 348 2093 1218 415 1263 
3014 2175 5633 4722 5609 4812 3011 362 390 
2147 341 1315 2148 1254 4777 3924 3059 3887 
2112 388 2151 392 2176 1215 2121 1267 3009 
3886 3857 1294 2973 2162 1280 1289 355 2135 
2128 1307 4732 1235 2115 3268 1396 1298 1293 
2970 437 1225 3879 2984 3940 1252 3853 3034 
7415 2173 3925 4816 1295 2179 2178 3859 3006 
5649 8322 4821 5700 2991 3934 3906 1265 1103 
3898 3053 3060 2116 4749 3944 2318 3861 2092 
5644 3918 3929 7358 2977 4795 7451 2131 8287 
3027 2144 4945 3942 3864 3064 7383 2189 2978 
2979 3872 3005 3022 2373 489 459 416 1359 
483 453 440 2223 3157 5765 2987 397 1331 
353 2218 3156 1258 614 4031 3018 3083 4045 
3012 263 1344 516 541 2192 2225 3098 3963 
1349 4869 4829 2256 299 2197 496 1249 387 
1326 537 3790 3090 4000 2231 2363 3159 283 
526 1416 531 3150 6638 2213 3104 1403 3371 
475 2266 2275 485 473 492 1383 6616 4893 
3117 2214 2240 3988 442 462 1404 500 1339 
1355 1368 4015 3993 3948 4017 3119 2217 2208 
513 2268 1402 2263 1365 2255 1599 4906 2219 
4826 3091 3096 3158 3069 1384 446 1381 1415 
457 4033 3115 3143 5727 2245 444 1324 1377 