# vtk DataFile Version 4.0
Generated by LIGGGHTS
ASCII
DATASET POLYDATA
POINTS 207 float
-0.243352 0.00756749 -0.244922 -0.220139 0.00763445 -0.244979 -0.201065 0.00757406 -0.244966 
-0.181615 0.00750498 -0.242088 -0.168702 0.00751489 -0.242007 -0.231716 0.00752145 -0.238907 
-0.2106 0.00766539 -0.241856 -0.191946 0.0076434 -0.240738 -0.243766 0.00756547 -0.23242 
-0.233083 0.00766422 -0.228685 -0.167202 0.00751568 -0.229502 -0.244902 0.00759324 -0.222439 
-0.17998 0.00770438 -0.221785 -0.234481 0.0076747 -0.21386 -0.223661 0.00753899 -0.216892 
-0.197343 0.00752652 -0.215439 -0.227314 0.0074997 -0.206889 -0.217311 0.00766838 -0.207081 
-0.244998 0.00750854 -0.197704 -0.175567 0.00766377 -0.200813 -0.231751 0.00767611 -0.197522 
-0.218126 0.00757056 -0.197073 -0.23164 0.00770718 -0.187522 -0.206439 0.00766772 -0.189353 
-0.192597 0.00761157 -0.191856 -0.181824 0.00751726 -0.189825 -0.169861 0.00767436 -0.192592 
-0.224099 0.00767206 -0.180954 -0.244598 0.00767026 -0.180961 -0.214504 0.00770063 -0.174907 
-0.204101 0.00752056 -0.178942 -0.193008 0.00750962 -0.180108 -0.170041 0.00751634 -0.172841 
-0.163454 0.00767417 -0.165318 -0.244774 0.00751728 -0.159323 -0.182225 0.00756236 -0.15796 
-0.216987 0.0076544 -0.155134 -0.167556 0.00752658 -0.156142 -0.24363 0.00761958 -0.14664 
-0.233689 0.00763907 -0.145557 -0.22399 0.0076986 -0.147994 -0.166226 0.00751465 -0.145049 
-0.244969 0.00752493 -0.0057455 -0.213763 0.00750808 -0.142322 -0.193372 0.00764228 -0.139947 
-0.183305 0.00766132 -0.139164 -0.2444 0.00765273 -0.136664 -0.227008 0.00757363 -0.138115 
-0.201464 0.0075421 -0.133195 -0.234897 0.0076839 -0.128545 -0.224793 0.0076595 -0.128363 
-0.212756 0.00767416 -0.131705 -0.192311 0.00755218 -0.12655 -0.160402 0.00753233 -0.131441 
-0.244696 0.00764097 -0.126547 -0.211578 0.00763225 -0.120277 -0.241391 0.00756066 -0.116695 
-0.231423 0.00745925 -0.115877 -0.221384 0.00765661 -0.115825 -0.184825 0.00753308 -0.117579 
-0.174664 0.0076641 -0.120057 -0.164416 0.00766909 -0.118153 -0.170305 0.00766709 -0.110066 
-0.243745 0.00770195 -0.106972 -0.232328 0.00766698 -0.105755 -0.192052 0.00752095 -0.107624 
-0.178414 0.00755703 -0.10415 -0.156187 0.00765101 -0.107715 -0.213178 0.00760426 -0.100917 
-0.203041 0.00754218 -0.10168 -0.161621 0.0076511 -0.0993171 -0.24137 0.00759776 -0.096892 
-0.219399 0.00749468 -0.0925073 -0.170785 0.00749465 -0.095314 -0.24203 0.00751585 -0.0866875 
-0.207697 0.00749967 -0.0754777 -0.19697 0.00751141 -0.0712342 -0.208454 0.00766925 -0.0609014 
-0.198457 0.00750517 -0.0613003 -0.172836 0.00751532 -0.0627408 -0.161011 0.00766848 -0.0278757 
-0.245 0.00754167 0.0451046 -0.224646 0.00767848 0.244887 -0.225744 0.00751104 0.194052 
-0.213079 0.00766672 0.213905 -0.244416 0.00749511 0.223364 -0.231929 0.00765908 0.225311 
-0.187936 0.00753391 0.226573 -0.241615 0.00752749 0.233312 -0.228495 0.0075323 0.234754 
-0.244658 0.00750262 0.243008 -0.143629 0.00769169 -0.244878 -0.133629 0.0076416 -0.245 
-0.122971 0.00763599 -0.244801 -0.0886553 0.0076853 -0.245 -0.0643348 0.00751494 -0.245 
-0.129804 0.00758151 -0.232769 -0.137619 0.00766532 -0.226529 -0.108762 0.00752552 -0.226899 
-0.0548304 0.00751653 -0.224378 -0.141195 0.00766677 -0.217152 -0.151274 0.00752957 -0.213232 
-0.0845458 0.00753981 -0.211313 -0.13324 0.0076342 -0.194102 -0.0900076 0.00763608 -0.195614 
-0.144254 0.00752347 -0.190592 -0.104994 0.00769141 -0.192907 -0.0740177 0.00752705 -0.186793 
-0.155051 0.00752087 -0.184144 -0.126798 0.00754891 -0.173979 -0.0545783 0.00751374 -0.177736 
-0.0862067 0.00766282 -0.169076 -0.153346 0.00751726 -0.166113 -0.0533852 0.00751639 -0.166555 
-0.122867 0.00757347 -0.160117 -0.0972405 0.00753946 -0.161317 -0.0804162 0.00764238 -0.159797 
-0.117246 0.00771054 -0.146755 -0.0992754 0.0076603 -0.149502 -0.0881935 0.00751499 -0.141558 
-0.145906 0.00749502 -0.131388 -0.153276 0.00752577 -0.124424 -0.125397 0.00763604 -0.124068 
-0.0810046 0.00756213 -0.12046 -0.14946 0.00764972 -0.115116 -0.121722 0.00750961 -0.114331 
-0.13161 0.00764689 -0.108869 -0.0663221 0.00766811 -0.102446 -0.134597 0.00753657 -0.0980192 
-0.123166 0.00767089 -0.094404 -0.0520711 0.00753067 -0.0870006 -0.092502 0.00766399 -0.0705661 
-0.0613085 0.00752799 -0.0536849 -0.155579 0.00766674 -0.149064 -0.0565858 0.00752133 0.0207352 
-0.100017 0.00752972 0.0814259 -0.0598563 0.00763431 0.104879 -0.103054 0.00756512 0.244117 
-0.112199 0.00765945 0.237624 -0.0942401 0.00754723 0.234738 -0.149628 0.00734152 0.244982 
-0.152097 0.0076489 0.0782402 -0.0235944 0.00753363 -0.239948 -0.0214004 0.00750042 -0.224956 
0.0331225 0.00765729 -0.209917 3.5847e-05 0.00767067 -0.188293 0.0245956 0.00752617 -0.00438612 
0.015184 0.00766455 -0.112416 0.0246134 0.00750212 -0.0999047 -0.0239196 0.00751911 -0.0977368 
0.0157135 0.00751457 -0.0533573 -0.0133873 0.00766138 -0.0312531 0.0255029 0.00753437 -0.0179436 
-0.0500802 0.00749781 -0.0208458 0.022499 0.00771415 0.136953 -0.000156585 0.00757293 0.147967 
-0.0113694 0.00765969 0.156716 0.0124206 0.00766843 0.200994 -0.0240219 0.00754511 0.213543 
0.0445731 0.00766693 0.227243 0.000587539 0.0075146 0.23487 0.0337583 0.00748704 0.237344 
0.0111198 0.00751832 0.244038 0.0402348 0.00717676 0.244978 -0.0433858 0.00750856 0.178465 
0.125618 0.00759162 -0.244038 0.0849751 0.00751482 -0.226145 0.149518 0.00751339 -0.17468 
0.075181 0.00767631 -0.126675 0.0682395 0.00763724 -0.117956 0.116519 0.00754833 -0.103205 
0.146898 0.00754447 -0.0881126 0.118388 0.00752114 -0.0540582 0.101871 0.00766698 -0.014903 
0.0596733 0.00753409 -0.123651 0.211076 0.00767501 -0.244742 0.245 0.00754575 -0.245 
0.222541 0.00752912 -0.235795 0.213756 0.00767935 -0.229933 0.223705 0.00751643 -0.221347 
0.234974 0.00751255 -0.226643 0.208612 0.00764274 -0.217271 0.215798 0.00749649 -0.210305 
0.215951 0.00751638 -0.197347 0.194216 0.00751534 -0.192479 0.227397 0.00751492 -0.190821 
0.24499 0.007578 -0.180681 0.238684 0.00753199 -0.157032 0.240933 0.00751398 -0.079692 
0.243891 0.0076727 -0.0695967 0.227778 0.00771177 -0.0607947 0.237828 0.00750481 -0.0613141 
0.175901 0.00750231 -0.0391634 0.235244 0.00765751 -0.0473655 0.226153 0.00756883 -0.0423981 
0.185669 0.00751674 -0.00658687 0.182504 0.00751896 0.0543607 0.224704 0.00751238 0.0397137 
0.213393 0.00769176 0.105504 0.237944 0.00750123 0.108967 0.192599 0.00766561 0.1516 
0.181499 0.00751925 0.155292 0.230689 0.00764173 0.178589 0.244007 0.00766116 0.193208 
0.243531 0.00763439 0.245 0.173502 0.00751503 0.124175 0.211187 0.00755129 0.00678471 

VERTICES 207 414
1 0 
1 1 
1 2 
1 3 
1 4 
1 5 
1 6 
1 7 
1 8 
1 9 
1 10 
1 11 
1 12 
1 13 
1 14 
1 15 
1 16 
1 17 
1 18 
1 19 
1 20 
1 21 
1 22 
1 23 
1 24 
1 25 
1 26 
1 27 
1 28 
1 29 
1 30 
1 31 
1 32 
1 33 
1 34 
1 35 
1 36 
1 37 
1 38 
1 39 
1 40 
1 41 
1 42 
1 43 
1 44 
1 45 
1 46 
1 47 
1 48 
1 49 
1 50 
1 51 
1 52 
1 53 
1 54 
1 55 
1 56 
1 57 
1 58 
1 59 
1 60 
1 61 
1 62 
1 63 
1 64 
1 65 
1 66 
1 67 
1 68 
1 69 
1 70 
1 71 
1 72 
1 73 
1 74 
1 75 
1 76 
1 77 
1 78 
1 79 
1 80 
1 81 
1 82 
1 83 
1 84 
1 85 
1 86 
1 87 
1 88 
1 89 
1 90 
1 91 
1 92 
1 93 
1 94 
1 95 
1 96 
1 97 
1 98 
1 99 
1 100 
1 101 
1 102 
1 103 
1 104 
1 105 
1 106 
1 107 
1 108 
1 109 
1 110 
1 111 
1 112 
1 113 
1 114 
1 115 
1 116 
1 117 
1 118 
1 119 
1 120 
1 121 
1 122 
1 123 
1 124 
1 125 
1 126 
1 127 
1 128 
1 129 
1 130 
1 131 
1 132 
1 133 
1 134 
1 135 
1 136 
1 137 
1 138 
1 139 
1 140 
1 141 
1 142 
1 143 
1 144 
1 145 
1 146 
1 147 
1 148 
1 149 
1 150 
1 151 
1 152 
1 153 
1 154 
1 155 
1 156 
1 157 
1 158 
1 159 
1 160 
1 161 
1 162 
1 163 
1 164 
1 165 
1 166 
1 167 
1 168 
1 169 
1 170 
1 171 
1 172 
1 173 
1 174 
1 175 
1 176 
1 177 
1 178 
1 179 
1 180 
1 181 
1 182 
1 183 
1 184 
1 185 
1 186 
1 187 
1 188 
1 189 
1 190 
1 191 
1 192 
1 193 
1 194 
1 195 
1 196 
1 197 
1 198 
1 199 
1 200 
1 201 
1 202 
1 203 
1 204 
1 205 
1 206 

POINT_DATA 207
FIELD FieldData 3
id 1 207 int
131 2346 1013 1957 5883 7911 5794 6741 2186 
1984 6357 3538 3028 1269 1458 488 371 17 
1027 3392 603 208 4783 1247 563 1304 1011 
1064 1048 3003 95 5831 1949 47 2804 4135 
2338 3760 3738 7074 921 889 6133 4561 3629 
2301 6484 3566 1820 1118 2507 6159 1869 3365 
618 5380 8326 2428 2361 4830 3374 2100 6454 
3282 3192 2533 2171 97 92 2371 1496 1154 
2053 755 1836 7017 3628 8696 4486 7899 498 
986 3327 258 6251 2078 1834 2559 553 4502 
4648 6347 8119 575 1621 180 1478 3341 1172 
662 2373 4546 1214 8483 5001 2869 1368 2118 
187 1383 3021 2221 3674 1503 8287 4136 3043 
288 1439 4951 1217 396 378 1248 2494 262 
1930 3400 4362 2623 7100 4504 930 1555 2195 
2748 6239 7842 809 5126 1444 1356 5244 2449 
4482 1785 1838 56 791 3539 1817 1833 7117 
1379 945 4273 4268 1180 1047 764 787 7815 
249 1545 1874 5071 4318 1793 264 1483 386 
4478 2152 113 2151 5920 4496 2230 456 1625 
1686 239 2606 515 1859 1585 8673 7818 4317 
3147 1577 88 1124 2063 305 2319 5088 1146 
2917 4661 692 1320 4356 1142 814 3270 3472 

type 1 207 int
1 1 1 1 1 1 1 1 1 
1 1 1 1 1 1 1 1 1 
1 1 1 1 1 1 1 1 1 
1 1 1 1 1 1 1 1 1 
1 1 1 1 1 1 1 1 1 
1 1 1 1 1 1 1 1 1 
1 1 1 1 1 1 1 1 1 
1 1 1 1 1 1 1 1 1 
1 1 1 1 1 1 1 1 1 
1 1 1 1 1 1 1 1 1 
1 1 1 1 1 1 1 1 1 
1 1 1 1 1 1 1 1 1 
1 1 1 1 1 1 1 1 1 
1 1 1 1 1 1 1 1 1 
1 1 1 1 1 1 1 1 1 
1 1 1 1 1 1 1 1 1 
1 1 1 1 1 1 1 1 1 
1 1 1 1 1 1 1 1 1 
1 1 1 1 1 1 1 1 1 
1 1 1 1 1 1 1 1 1 
1 1 1 1 1 1 1 1 1 
1 1 1 1 1 1 1 1 1 
1 1 1 1 1 1 1 1 1 

radius 1 207 double
0.005 0.005 0.005 0.005 0.005 0.005 0.005 0.005 0.005 
0.005 0.005 0.005 0.005 0.005 0.005 0.005 0.005 0.005 
0.005 0.005 0.005 0.005 0.005 0.005 0.005 0.005 0.005 
0.005 0.005 0.005 0.005 0.005 0.005 0.005 0.005 0.005 
0.005 0.005 0.005 0.005 0.005 0.005 0.005 0.005 0.005 
0.005 0.005 0.005 0.005 0.005 0.005 0.005 0.005 0.005 
0.005 0.005 0.005 0.005 0.005 0.005 0.005 0.005 0.005 
0.005 0.005 0.005 0.005 0.005 0.005 0.005 0.005 0.005 
0.005 0.005 0.005 0.005 0.005 0.005 0.005 0.005 0.005 
0.005 0.005 0.005 0.005 0.005 0.005 0.005 0.005 0.005 
0.005 0.005 0.005 0.005 0.005 0.005 0.005 0.005 0.005 
0.005 0.005 0.005 0.005 0.005 0.005 0.005 0.005 0.005 
0.005 0.005 0.005 0.005 0.005 0.005 0.005 0.005 0.005 
0.005 0.005 0.005 0.005 0.005 0.005 0.005 0.005 0.005 
0.005 0.005 0.005 0.005 0.005 0.005 0.005 0.005 0.005 
0.005 0.005 0.005 0.005 0.005 0.005 0.005 0.005 0.005 
0.005 0.005 0.005 0.005 0.005 0.005 0.005 0.005 0.005 
0.005 0.005 0.005 0.005 0.005 0.005 0.005 0.005 0.005 
0.005 0.005 0.005 0.005 0.005 0.005 0.005 0.005 0.005 
0.005 0.005 0.005 0.005 0.005 0.005 0.005 0.005 0.005 
0.005 0.005 0.005 0.005 0.005 0.005 0.005 0.005 0.005 
0.005 0.005 0.005 0.005 0.005 0.005 0.005 0.005 0.005 
0.005 0.005 0.005 0.005 0.005 0.005 0.005 0.005 0.005 

