# vtk DataFile Version 4.0
Generated by LIGGGHTS
ASCII
DATASET POLYDATA
POINTS 4246 float
-0.245011 0.00879916 -0.245008 -0.234568 0.00828492 -0.244917 -0.221381 0.00761416 -0.245009 
-0.204235 0.00532478 -0.244576 -0.193725 0.00686115 -0.24498 -0.183205 0.00844764 -0.244635 
-0.172721 0.00640433 -0.243294 -0.152342 0.00655815 -0.244952 -0.141638 0.00822338 -0.244972 
-0.13202 0.0054724 -0.242943 -0.237071 0.0126076 -0.0987099 -0.213199 0.0131826 -0.243695 
-0.130153 0.00849557 -0.113305 -0.162306 0.00756348 -0.244963 -0.239701 0.00340469 -0.2372 
-0.198416 0.005616 -0.235311 -0.187695 0.00365891 -0.236545 -0.227185 0.00963609 -0.237128 
-0.215704 0.00570338 -0.235557 -0.207673 0.00382273 -0.228845 -0.176858 0.00309208 -0.233581 
-0.166085 0.00604364 -0.235164 -0.168289 0.0148736 -0.179432 -0.150873 0.00452357 -0.227829 
-0.140266 0.00615368 -0.233129 -0.220249 0.00581182 -0.226585 -0.184018 0.00666486 -0.226396 
-0.138993 0.00797057 -0.22337 -0.244559 0.0119593 -0.229403 -0.232756 0.00841203 -0.228466 
-0.148546 0.0115867 -0.236156 -0.169958 0.0032149 -0.226347 -0.16066 0.00731589 -0.225399 
-0.206892 0.0100402 -0.218487 -0.194085 0.00592798 -0.226221 -0.177385 0.00702557 -0.218923 
-0.150498 0.00285195 -0.21797 -0.153261 0.0142398 -0.142134 -0.238099 0.00941691 -0.21982 
-0.185714 0.0146831 -0.0934333 -0.217109 0.0123706 -0.219551 -0.221601 0.0145852 -0.193593 
-0.193795 0.0115737 -0.217875 -0.188051 0.00400031 -0.214284 -0.132627 0.00588947 -0.103098 
-0.159785 0.0145015 -0.215674 -0.236438 0.0131686 -0.0260752 -0.236662 0.0111792 -0.210035 
-0.2053 0.00768727 -0.208887 -0.17103 0.00647295 -0.211222 -0.14836 0.00594889 -0.208624 
-0.195142 0.00789073 -0.207624 -0.179877 0.011452 -0.21026 -0.243935 0.0114823 -0.201761 
-0.213874 0.00624793 -0.203378 -0.158305 0.0123819 -0.233752 -0.186029 0.00799421 -0.203112 
-0.158512 0.00822797 -0.208012 -0.139582 0.00901487 -0.204931 -0.143601 0.0146141 -0.00359816 
-0.240122 0.0138681 -0.0759488 -0.176889 0.00819341 -0.198272 -0.166768 0.00857436 -0.20242 
-0.174504 0.0134648 -0.236437 -0.196587 0.0100656 -0.19752 -0.206796 0.00928193 -0.196906 
-0.143995 0.0137828 -0.0154404 -0.225473 0.0125639 -1.9229e-05 -0.24462 0.00946726 -0.191913 
-0.215325 0.0041965 -0.192334 -0.194977 0.00711658 -0.187104 -0.181916 0.00611813 -0.187469 
-0.164475 0.00863157 -0.189635 -0.155591 0.00848042 -0.194234 -0.135734 0.00979155 -0.19381 
-0.181603 0.0143594 -0.113342 -0.244755 0.0133185 -0.0204189 -0.130351 0.0132972 -0.00574615 
-0.221707 0.00715836 -0.185219 -0.17247 0.00640451 -0.18405 -0.146596 0.00696492 -0.18911 
-0.242686 0.0100907 -0.181138 -0.181924 0.0138611 -0.0820993 -0.205628 0.0076866 -0.184384 
-0.209654 0.00840958 -0.175153 -0.186966 0.00944836 -0.179441 -0.16028 0.00489037 -0.180631 
-0.131839 0.00856022 -0.184577 -0.19084 0.0108294 -0.0676899 -0.235323 0.0134318 -0.04584 
-0.142677 0.0122414 -0.181585 -0.244707 0.00480206 -0.171275 -0.234408 0.00921326 -0.174503 
-0.223029 0.00791109 -0.174802 -0.200123 0.0103287 -0.17039 -0.147634 0.00472439 -0.176537 
-0.137784 0.00956832 -0.170851 -0.134785 0.013469 -0.0232709 -0.177028 0.00498326 -0.17522 
-0.213761 0.00609795 -0.164934 -0.191946 0.0147773 -0.165518 -0.184029 0.00709424 -0.166875 
-0.235097 0.00546873 -0.159652 -0.222911 0.0123488 -0.165618 -0.200332 0.0140108 -0.226422 
-0.16693 0.00454181 -0.170105 -0.156406 0.00703931 -0.171562 -0.205147 0.0123299 -0.0598619 
-0.203107 0.00769169 -0.156315 -0.164304 0.00652609 -0.160654 -0.144458 0.00740012 -0.163507 
-0.244638 0.00909987 -0.159074 -0.215056 0.0133072 -0.157691 -0.221729 0.0145569 -0.149381 
-0.222448 0.00626817 -0.155291 -0.155848 0.00471214 -0.155617 -0.177122 0.00924213 -0.159935 
-0.169782 0.0100455 -0.153065 -0.133823 0.00697223 -0.16012 -0.228728 0.00683937 -0.144605 
-0.21065 0.00824926 -0.148885 -0.186512 0.00958556 -0.156514 -0.181492 0.00570163 -0.148073 
-0.1601 0.0103775 -0.148507 -0.142223 0.00852822 -0.153792 -0.197459 0.0120664 -0.0183621 
-0.243816 0.00393934 -0.147391 -0.217658 0.00827558 -0.141594 -0.204863 0.00538563 -0.140953 
-0.189641 0.00760175 -0.142076 -0.168166 0.0119525 -0.142765 -0.149477 0.00508863 -0.147644 
-0.154486 0.0146185 -0.155644 -0.166057 0.0149439 -0.0718908 -0.15768 0.00717956 -0.136407 
-0.234808 0.00464446 -0.135354 -0.223017 0.00379518 -0.130876 -0.211491 0.00761894 -0.133701 
-0.197061 0.00735018 -0.134909 -0.176983 0.00905049 -0.138399 -0.163657 0.0136789 -0.0146963 
-0.243453 0.00659824 -0.128362 -0.184548 0.00421989 -0.132728 -0.175796 0.00673591 -0.128329 
-0.148131 0.00950788 -0.133939 -0.13673 0.0118844 -0.132968 -0.203939 0.00799588 -0.127032 
-0.167477 0.00739614 -0.133801 -0.241161 0.00640254 -0.118577 -0.232362 0.00712914 -0.124983 
-0.15891 0.0111921 -0.12649 -0.138808 0.013231 -0.123283 -0.168642 0.0119351 -0.219808 
-0.192779 0.011813 -0.127009 -0.174461 0.0140914 -0.0128148 -0.223726 0.0105838 -0.118711 
-0.195632 0.00496952 -0.119305 -0.173889 0.00651053 -0.118502 -0.161765 0.00937863 -0.116748 
-0.151616 0.0145074 -0.118874 -0.211875 0.00695755 -0.116376 -0.183279 0.005074 -0.121732 
-0.16132 0.00795792 -0.00583435 -0.221516 0.00913178 -0.108629 -0.140133 0.00985552 -0.113882 
-0.244991 0.00784954 -0.109371 -0.23206 0.00780397 -0.113742 -0.170493 0.0128763 -0.083874 
-0.188088 0.0064079 -0.112891 -0.170597 0.0137281 -0.112088 -0.239583 0.0111287 -0.00555449 
-0.182841 0.00611929 -0.00610207 -0.172162 0.0128759 -0.0260142 -0.177361 0.00658899 -0.108493 
-0.16765 0.00621912 -0.106143 -0.227607 0.0116828 -0.135388 -0.204507 0.00716362 -0.10864 
-0.195889 0.0122997 -0.110014 -0.185655 0.00922454 -0.103546 -0.145259 0.00947249 -0.10491 
-0.19565 0.0066974 -0.101741 -0.177719 0.00737631 -0.0977446 -0.16081 0.00775513 -0.0985319 
-0.229419 0.00687402 -0.102599 -0.163493 0.0133782 -0.031282 -0.203961 0.0115862 -0.0981468 
-0.237701 0.0110373 -0.14334 -0.198263 0.00364355 -0.000339852 -0.213613 0.00797481 -0.0969937 
-0.187626 0.00487552 -0.094734 -0.151016 0.00832165 -0.0967629 -0.138787 0.00735161 -0.0947029 
-0.245004 0.00597005 -0.0990622 -0.223513 0.00857056 -0.0944662 -0.206035 0.00998317 -0.0850568 
-0.19718 0.00710582 -0.0918744 -0.18871 0.00462286 -0.0840249 -0.177083 0.00639215 -0.0878007 
-0.157671 0.0115233 -0.0891645 -0.143681 0.0116592 -0.0865285 -0.173727 0.0126513 -0.0441707 
-0.243551 0.0103518 -0.0901718 -0.233671 0.00468302 -0.0917482 -0.24502 0.0123593 -0.136687 
-0.225674 0.0132392 -0.062472 -0.244978 0.00613467 -0.0811818 -0.234863 0.00725087 -0.0819038 
-0.216073 0.00791504 -0.0864371 -0.166913 0.00538639 -0.0909189 -0.195852 0.0124556 -0.0835384 
-0.174473 0.00573847 -0.0776031 -0.204965 0.0128898 -0.238084 -0.13471 0.01146 -0.0798051 
-0.22412 0.00496196 -0.0764012 -0.19419 0.00545315 -0.075707 -0.184175 0.00582738 -0.0750571 
-0.154072 0.00855252 -0.0802288 -0.144928 0.00868777 -0.0761913 -0.214122 0.00467874 -0.07687 
-0.21115 0.0139888 -0.00364594 -0.233052 0.00677693 -0.0720812 -0.204193 0.00580841 -0.0760026 
-0.171819 0.00658381 -0.0679859 -0.163627 0.00636434 -0.0781284 -0.150874 0.00453709 -0.0692334 
-0.136592 0.006594 -0.0710764 -0.218176 0.00986605 -0.0692149 -0.209662 0.00504749 -0.0670196 
-0.199445 0.00347137 -0.0658774 -0.181602 0.00802381 -0.065013 -0.164648 0.00735926 -0.0608164 
-0.244876 0.00633266 -0.0707959 -0.15534 0.0122703 -0.0624999 -0.239905 0.013766 -0.238019 
-0.230306 0.0134262 -0.154649 -0.244992 0.0146429 -0.0551013 -0.187116 0.00553937 -0.0554452 
-0.174326 0.00664641 -0.0583102 -0.196857 0.0059655 -0.0384577 -0.234233 0.00778535 -0.0621162 
-0.224973 0.00462824 -0.0573361 -0.214682 0.00824586 -0.0582864 -0.204553 0.00480137 -0.0533357 
-0.19622 0.0101235 -0.0556286 -0.180659 0.0138162 -0.0552684 -0.155853 0.00716205 -0.0536624 
-0.13634 0.00784483 -0.0605331 -0.234149 0.00521255 -0.0524207 -0.139504 0.00535125 -0.0510506 
-0.179312 0.00487333 -0.049132 -0.167265 0.00728178 -0.0509684 -0.146127 0.00719266 -0.058693 
-0.224177 0.00950143 -0.0479791 -0.205412 0.00351965 -0.0432019 -0.192973 0.00296879 -0.0472107 
-0.150569 0.00667947 -0.0439638 -0.244394 0.00681543 -0.0474911 -0.213801 0.0093437 -0.047646 
-0.198218 0.0127962 -0.0301211 -0.221699 0.0101757 -0.00909053 -0.225158 0.00769333 -0.0379381 
-0.185803 0.0116501 -0.0443655 -0.179569 0.00575453 -0.0391834 -0.166769 0.0063193 -0.040808 
-0.212782 0.0125238 -0.228693 -0.244952 0.00804475 -0.0322705 -0.234733 0.00686657 -0.0338177 
-0.216165 0.00926105 -0.0338795 -0.206505 0.00727503 -0.0320478 -0.158227 0.00366379 -0.0359023 
-0.142362 0.0142695 -0.0332816 -0.20235 0.0134626 -0.146899 -0.187977 0.00776854 -0.0341634 
-0.217845 0.0088955 -0.0234746 -0.172186 0.00526027 -0.0324727 -0.152623 0.0119073 -0.0286032 
-0.242161 0.00345534 -0.0229399 -0.226476 0.00664571 -0.0279881 -0.181402 0.0088774 -0.0256485 
-0.144187 0.00407337 -0.00930854 -0.141051 0.00625765 -0.0271958 -0.205782 0.00754167 -0.0219754 
-0.191182 0.00530912 -0.0241735 -0.133741 0.0043086 -0.0121436 -0.213331 0.00872959 -0.0145629 
-0.177497 0.00555712 -0.0170513 -0.163785 0.00639096 -0.0239555 -0.148028 0.00580853 -0.0198542 
-0.235945 0.00880709 -0.0167794 -0.226215 0.00631086 -0.0173423 -0.186703 0.00997014 -0.0165062 
-0.153989 0.0138271 -0.0178533 -0.244994 0.00639557 -0.0132026 -0.231021 0.00639694 -0.0079237 
-0.203067 0.00635997 -0.0118188 -0.193129 0.00593175 -0.00973616 -0.171747 0.00483724 -0.00788454 
-0.154374 0.00429038 -0.0120259 -0.184099 0.014263 -0.233758 -0.134892 0.00544507 0.0555534 
-0.191519 0.0135503 0.110131 -0.206828 0.00483339 0.00490049 -0.185973 0.00565224 0.00347669 
-0.136752 0.00839589 0.000194363 -0.244958 0.00587018 0.00114566 -0.148911 0.0058424 0.000878343 
-0.225389 0.00954672 0.00960632 -0.163525 0.012777 0.24476 -0.194619 0.00715434 0.00827084 
-0.167899 0.00538682 0.00144439 -0.244997 0.0145271 0.0811412 -0.176784 0.00666413 0.00822286 
-0.20317 0.0148555 0.086482 -0.205147 0.00631747 0.0148638 -0.185162 0.00510869 0.0135168 
[...]
POINT_DATA 4246
FIELD FieldData 3
id 1 4246 int
1341 1786 1774 2638 3543 538 1003 3489 482 
4033 3463 3502 2339 1792 3930 2202 451 445 
917 1337 2210 3494 596 3631 1477 487 12 
4066 480 3472 3551 2217 7 2627 3187 484 
2337 96 879 2624 3484 3063 3950 453 924 
2216 38 1779 3922 1325 3190 8 2606 1354 
586 13 47 3024 919 44 3944 2176 531 
474 2625 1350 220 3936 2184 2628 486 1420 
464 3025 608 3116 476 2299 2209 1353 492 
3495 1315 909 911 2607 477 606 2219 41 
177 2207 3035 2622 1796 1483 3624 594 36 
2632 1338 2325 3938 2177 3065 535 1413 3026 
4034 1778 3059 3504 3931 910 450 3545 3461 
3511 465 63 1310 2256 1775 1363 3462 3923 
59 1312 899 2221 1793 1791 4050 1406 3134 
3049 53 491 1348 488 1401 2314 880 58 
163 1418 448 1321 2644 1762 2636 1349 1750 
926 2643 881 10 1339 3163 2746 906 1801 
3635 3532 2201 2220 1798 961 877 3195 67 
3031 3064 602 2764 2195 2629 3037 1781 52 
3471 3189 485 1362 2620 1322 1797 3467 1352 
905 3196 3985 2200 2649 1408 1416 2699 1411 
3490 1788 1375 1357 3943 921 2600 1342 2211 
872 1849 3899 1884 1783 2647 3071 3951 3630 
3508 3159 3992 2379 3076 1787 1784 55 2309 
3186 1751 1856 1838 74 1019 1361 1799 3034 
54 2646 1360 1340 3491 3947 3028 2645 1759 
483 452 3892 1760 467 1912 3506 2756 2196 
3030 473 1753 3468 2698 11 1333 3542 1347 
1365 2183 3510 2640 9 3104 3032 2236 50 
3897 466 493 2205 176 1950 889 1316 869 
1356 2223 490 3108 1904 883 3047 902 2353 
3054 3928 142 1330 3929 935 873 634 3903 
206 1313 1074 3048 2664 218 1908 874 914 
2652 2349 2642 3202 501 548 3979 1359 2723 
3229 81 175 2804 2650 927 4026 80 3093 
2656 3963 2 1794 1379 2617 2659 4071 3512 
3975 916 3968 3236 3971 1470 3052 937 2204 
3520 211 4015 2203 3513 896 2225 4073 1813 
953 3918 3148 1520 1374 2250 2679 890 17 
3917 3145 1528 3106 1491 51 1397 2672 93 
1328 940 2179 1769 1808 1069 931 3973 1827 
882 2374 2239 1367 4094 3480 1394 947 4111 
92 2653 499 2608 3230 2661 2233 1475 2670 
23 521 955 1501 948 64 461 3242 2724 
1386 3957 1371 66 886 4024 1424 2669 21 
3955 2781 3907 1814 888 1785 1373 936 1833 
3518 1061 76 449 3099 86 3645 1826 3039 
1811 549 1505 1380 3097 3088 1830 2615 4077 
1807 3912 3981 3534 3144 495 944 2237 18 
2244 3479 2663 1384 2229 628 3515 3101 4017 
3535 1062 2253 2677 514 1500 1879 3111 1393 
3527 3517 2612 3970 1771 1376 1063 3910 3524 
1764 1382 1370 945 2242 1511 3949 2293 2768 
3478 77 884 78 71 88 2383 523 3082 
1377 3531 2230 1862 1389 1817 567 1962 1429 
3523 520 3539 2188 2186 460 1378 1372 456 
3109 929 1946 2234 2637 1331 1436 507 3213 
1767 952 3911 29 2378 1821 949 1816 930 
3529 27 3920 4104 2769 95 3961 1768 4074 
1514 28 3964 3972 1815 954 2231 193 1770 
3967 1392 199 3578 934 1871 3481 1423 1812 
3528 2674 3976 895 500 3959 3538 2224 3966 
2192 932 1772 2613 3204 3083 457 3953 69 
3915 3956 1060 1516 3906 72 3921 508 3085 
3913 3092 2189 1071 85 942 503 2232 3980 
1824 3086 99 1358 2597 3483 525 3061 182 
4049 1366 878 3498 2633 1344 3503 913 1777 
2693 2185 3070 3460 3182 871 3029 40 876 
1757 1319 471 2604 875 3177 1761 3038 901 
489 2222 1479 2218 39 5 922 3069 3056 
481 625 3074 3902 2736 3946 3932 907 2336 
3509 1320 2603 2635 1032 3465 2634 925 1752 
2215 3611 3894 3926 2601 2641 37 3077 3112 
3057 2212 1318 446 3041 4001 3113 3487 912 
1906 2766 2648 46 3051 3935 2208 3050 3561 
968 162 1054 2623 2732 181 3068 2602 1837 
3469 3893 3925 614 2744 2755 898 1756 3 
1044 2197 581 3115 49 553 475 1355 2199 
1898 3942 3544 951 2328 1923 4053 1031 2598 
1010 1323 3521 3898 1 900 3130 1924 966 
62 1844 3607 169 479 2599 1921 2639 1795 
3033 2182 1758 22 1900 3060 3904 3180 1905 
1005 35 3036 1346 2631 2334 3982 3905 1343 
868 2752 3919 2181 510 3994 3486 1911 1476 
1311 89 960 3079 3482 16 3492 15 2263 
1445 45 590 3927 2621 2178 454 1345 2198 
3459 3466 3095 3485 3120 3055 1842 1448 3464 
444 1351 904 3053 2180 3896 3147 1317 4004 
2214 915 1467 462 1800 870 1852 576 2326 
468 516 1755 3940 3078 519 2226 1934 1087 
3960 19 497 4013 2342 2662 3493 42 2722 
496 1895 3924 34 637 2667 2626 3081 4080 
4083 3477 30 4082 1332 558 498 2678 505 
512 2228 43 3098 2251 33 511 190 209 
2252 3090 494 3657 3141 1381 215 891 1937 
2227 2610 1874 4103 3530 1763 1383 60 1390 
2243 3087 1823 1834 187 515 561 950 4020 
981 1822 4084 3474 3537 194 3962 2249 1819 
3969 2241 1945 126 4106 3952 1963 1335 2248 
217 1387 75 2654 3570 887 643 2665 2254 
3046 1809 1391 224 941 463 2363 3475 4091 
2356 1773 1828 185 32 2676 984 1369 2190 
1776 956 3916 3648 2288 894 1388 225 90 
3153 2713 2280 2707 2614 458 3103 3100 559 
3476 216 518 3978 3533 1326 513 893 3644 
2238 3094 1499 24 128 2673 2666 3965 3516 
2791 939 3091 2193 1820 3080 923 4012 2347 
1329 1336 2611 1930 2609 20 2240 91 938 
3084 509 2651 459 517 3044 25 1385 1334 
2191 2783 3231 84 2235 470 3107 1327 2660 
1802 2294 3043 3569 1810 2657 2668 1443 3110 
3958 219 3045 3228 4076 2247 1422 1051 2658 
1508 3470 3522 79 933 2655 2675 892 506 
3671 68 3914 1395 48 3604 1803 1009 1035 
1324 604 4039 4063 1552 1486 1460 3654 601 
3933 155 447 526 2466 1882 2042 978 469 
3166 4187 3891 3622 2762 3552 3126 3619 2680 
2012 3022 3473 1016 3600 613 1922 1839 1026 
4064 3983 4070 2213 3245 1462 1854 152 2322 
150 3760 1040 967 3133 3119 2329 2315 2333 
2264 103 2267 3560 1412 1480 4041 3298 4068 
2255 1015 2301 3686 144 3075 2464 578 714 
595 2020 1012 573 536 178 3183 1885 574 
1789 2259 3554 1896 106 2687 1749 1894 1398 
3496 1027 977 1023 2697 3729 104 2009 962 
1452 1918 1909 3895 3170 2749 3623 1038 2311 
1846 161 731 4036 1754 612 1890 4002 1919 
973 183 527 186 970 2275 3201 598 2272 
1409 172 4031 3173 957 4054 2727 3169 583 
1410 2761 908 2696 1464 1913 572 3129 1030 
1888 295 885 3996 1024 1018 173 1782 528 
4043 3128 3131 2398 2269 2387 108 1579 4190 
1022 2307 101 3986 530 675 2748 589 1858 
3310 1897 3121 3692 3548 1314 245 3555 4045 
543 1850 2305 3181 3615 2684 148 544 2861 
1886 605 3984 1903 3592 1447 2472 3603 1920 
1843 1466 545 1041 599 4038 1853 116 4052 
1765 1456 2725 3608 2257 2700 2726 3200 974 
2354 2759 2274 1482 3308 2341 2310 3590 2685 
547 532 3193 1450 2260 4062 3621 3317 151 
4051 4172 3610 1013 1058 1430 3690 3605 180 
3595 1043 3168 504 1039 4007 3613 3122 3178 
2332 110 3191 4048 542 1848 239 4 3553 
1444 3160 3998 1103 2308 4055 2306 4046 2295 
3172 157 1637 4069 2396 555 745 3058 3612 
3549 2822 1459 1512 1078 1471 3629 2701 3598 
2317 2344 308 3114 82 1400 3167 3175 1510 
2758 1790 2702 3205 2041 4078 3300 3643 4060 
184 2487 3733 2922 4132 2754 297 2742 346 
1654 3993 102 1100 963 4035 1017 3576 975 
560 1048 1437 1914 3220 2731 618 3188 2278 
2069 57 3212 585 2319 146 3158 195 3567 
1473 1407 1495 1194 3519 2056 3995 982 3908 
1526 2292 3526 1944 3639 3672 1188 2630 1938 
3194 3154 2507 3146 4006 223 1052 2289 1947 
1953 2290 757 653 1861 120 1119 3650 4109 
980 630 125 1067 1025 122 2787 4014 3716 
1565 136 2291 1053 1932 133 1966 2775 3222 
3333 4223 2366 1428 2763 695 620 3673 4008 
1131 315 342 3573 4009 2706 100 1942 2784 
2793 3137 1878 635 3668 4150 1926 1504 1881 
4025 2719 1502 2616 1951 4010 641 4081 2300 
2788 228 124 2847 3203 3663 1070 1506 1196 
3040 636 2776 1949 4139 2298 1047 3585 3646 
321 205 2368 4100 2371 1202 1518 563 2703 
3637 3641 212 638 3237 3155 3571 140 3653 
1438 3783 2704 570 3234 633 1939 1059 4089 
616 2720 340 1497 1435 4011 2297 651 2362 
1081 3636 1084 1621 1057 2773 1442 1574 2777 
3642 135 632 997 83 645 3218 2841 4027 
1805 3135 569 3139 1000 621 4086 647 4212 
2373 551 2067 3577 655 1509 121 502 991 
2772 3238 619 649 2086 2358 2296 3589 1515 
3575 207 191 656 1965 2799 946 2279 3634 
2187 1002 1863 994 1065 3136 137 556 3581 
202 1866 2359 1042 985 3102 2712 3149 778 
992 3586 1082 1077 3568 31 626 1086 2794 
455 3225 1928 1956 1496 3588 3670 3633 2795 
3617 617 1049 988 1001 131 143 1880 4102 
2790 4085 1433 566 627 4075 615 1940 4098 
1441 1766 4023 65 3536 1524 648 2782 698 
928 1961 1494 2384 1211 2350 3647 268 622 
3540 1960 1489 987 1869 4028 2779 2505 3909 
1941 1517 4136 201 3977 986 1872 2375 134 
4215 1368 4110 2711 3661 3632 640 3566 1573 
1933 1493 2246 1440 1955 3207 1619 550 1525 
694 552 1870 3574 203 1868 571 2688 4090 
4101 610 639 149 2760 1455 4000 1995 3627 
607 3164 192 3606 198 2451 3233 1899 2750 
3027 2324 1446 2323 3215 147 1402 3118 3616 
979 1472 1028 2321 1404 3594 2270 1029 2302 
156 529 2738 70 2276 609 740 3067 3556 
1037 577 2462 3988 2470 179 2271 472 117 
2728 306 1449 2343 3628 3761 3197 3728 2023 
4040 3125 1917 107 105 2206 1014 4198 2771 
1474 1907 1845 1011 4030 2686 2692 2331 4037 
174 2803 3209 2376 592 1891 2316 584 3591 
3620 2277 3609 2681 4057 1840 3565 959 3198 
3562 524 3602 2258 588 1532 289 1405 546 
1163 597 575 971 1036 996 109 2266 3997 
3192 3939 2694 1887 1109 2695 4067 170 281 
6 1971 154 1893 1006 167 2320 969 4058 
1883 3614 3124 918 1399 2265 579 587 3127 
2753 3557 3948 1034 3558 603 1867 4003 3174 
539 1857 2338 903 3990 4061 1117 1851 623 
4108 1396 976 3618 1097 593 3559 3062 2757 
2327 3185 2691 2730 1403 129 2340 652 2734 
1419 972 1902 196 3625 4065 2709 2351 1417 
1454 2408 1915 61 1841 2312 159 1004 541 
145 4005 2261 600 112 533 2733 3599 3547 
2407 1484 3987 3171 1592 2682 4042 3937 537 
1461 1453 2690 168 98 4169 1451 1085 1415 
3596 4047 2084 1468 2889 4097 1076 3208 2605 
4227 1864 3211 2792 2717 1046 562 123 3217 
654 1050 1431 1075 4087 3665 3258 965 1836 
1936 3142 94 629 4029 1948 3579 1825 1521 
2286 2780 3235 1916 2419 2786 1957 2360 564 
1123 3224 222 153 3140 3241 2503 2352 4079 
3221 3954 2194 3138 2268 1935 1191 2425 1659 
3206 2705 3662 1432 3781 1876 1889 1056 2501 
554 993 565 642 2415 1990 3778 1425 2380 
1522 4216 1080 1055 1943 3660 200 1427 3216 
1831 983 229 1488 2355 995 208 568 1832 
118 138 2740 3666 2774 113 3364 329 1064 
3667 3105 210 2282 3223 221 2245 3587 4022 
204 4088 1873 3703 631 1426 3240 2671 3656 
3214 2708 1927 1079 2807 4092 3583 3525 1959 
4112 2800 644 2805 2369 2364 2285 2283 1877 
2809 3669 189 139 1527 998 3156 3143 127 
1434 3784 2386 1033 2778 2907 3659 3658 2497 
2006 3096 1210 3651 130 2710 1954 1991 2802 
214 522 1865 2714 2348 990 2481 3157 2801 
1492 2002 3649 3711 943 2718 1490 2785 3227 
227 1066 2281 1073 1498 2357 2808 1804 3791 
2287 1925 4018 2074 3582 4107 213 158 1855 
2818 1986 386 2888 4282 166 1910 3252 1267 
1154 244 3751 2453 1110 2403 3564 310 1147 
674 710 705 1174 3753 3294 1929 231 2013 
2875 282 2436 4164 2814 1414 3316 247 2442 
729 1981 1208 2038 171 2767 248 2810 1706 
4167 367 1538 2765 1581 4165 2318 160 3184 
250 3254 663 4177 3328 667 2745 4186 1835 
2862 1542 702 1021 287 278 3251 669 2037 
1546 3261 3322 1973 4173 3162 4197 660 3684 
3846 3255 2026 3293 1169 2400 730 2007 4121 
4191 3749 611 2813 2335 1245 1155 1969 1548 
4120 3266 3290 1469 1551 2872 662 2819 3677 
2564 4130 3730 240 1972 2036 2828 1578 232 
111 2894 3726 3313 738 238 4166 3330 3754 
3687 1602 719 666 1615 1979 311 3732 1589 
3165 1968 3597 720 734 2405 707 671 2303 
1162 4122 1598 1591 1102 3292 3306 3989 814 
3695 3682 2028 2441 1605 2830 1531 1158 1988 
1149 534 733 2460 3772 1544 3321 725 243 
1600 1535 165 1168 2457 2821 2404 2452 3727 
1599 4182 1590 280 3318 3244 1593 2735 2071 
1146 2435 2440 2433 2886 3326 2330 1170 4118 
249 2954 2878 2866 2262 2829 1142 3845 2863 
732 4160 1485 2015 1090 2874 2990 1478 2027 
736 2445 3626 3323 540 2471 1144 301 3683 
1583 580 1088 3758 1711 2034 277 1616 1641 
3296 2859 283 2831 3132 739 2741 2891 821 
1537 2021 2394 2877 3723 1975 1150 1141 1156 
715 1096 2868 1596 3265 290 1718 3253 2467 
2751 2018 1458 2860 337 716 4117 300 4127 
3260 1595 305 3232 2039 2367 2881 3325 4287 
307 2045 1143 3763 1847 4185 1101 4113 1901 
2024 4174 4141 2437 1611 2008 1608 4184 385 
2035 2019 2883 2876 2890 2080 2902 2817 1165 
3563 1617 722 1457 4149 233 3742 3199 2473 
255 1586 1539 253 319 1113 2393 4218 3259 
680 3287 1571 2854 2938 272 1609 1237 777 
265 3680 4145 2914 1558 3267 693 1197 3278 
1167 1974 1967 773 2088 4099 3151 1159 3280 
2064 1612 2845 999 3275 4161 3702 3685 2413 
1136 789 3273 1126 4138 3352 2939 259 2934 
2068 3999 2079 1127 3764 350 2479 3353 2463 
2927 1068 1092 691 2149 582 3640 1563 2060 
2923 761 1192 3256 687 4203 3345 2930 2003 
235 2480 4230 330 2502 3423 2485 2421 2049 
4170 756 4225 1556 3277 4211 1646 2915 2917 
2504 760 2101 4237 765 4152 327 1124 1859 
4200 1128 728 3572 1650 1994 3349 443 686 
776 380 2721 256 2833 4222 3719 684 316 
4156 3655 771 372 1653 4146 2416 2109 3773 
1130 2933 2420 3271 768 4202 1132 2414 1183 
2484 679 4221 3788 3354 3360 3365 2856 1212 
3274 1214 2913 4224 1553 1206 1190 4325 2051 
4233 4318 1083 3444 2370 2428 324 1289 1129 
3823 2935 1999 4236 1651 1620 4021 1203 2498 
2904 755 3698 3803 3710 3366 2083 2070 3239 
3785 2062 696 4231 2513 1177 1631 2494 2919 
3279 3713 2796 1575 3796 320 3283 3769 1215 
770 3338 2926 3652 766 775 1645 3362 2506 
2510 1572 3346 1623 3371 4144 2431 2365 2410 
1185 3701 322 1564 2846 1647 1652 4206 2372 
2478 2078 2427 3284 269 2057 2770 2511 989 
328 1628 678 4093 352 4199 1640 2514 4263 
1560 3718 2918 4143 326 4220 3369 1120 2928 
1658 3580 4155 1952 4228 1860 1121 1629 3779 
1998 1503 1638 646 345 197 3350 3332 1639 
2053 1559 1635 3019 624 692 1992 2058 4153 
3150 1507 2052 344 264 2912 3272 699 2853 
2361 1996 1176 2568 1644 3276 650 3707 1200 
1072 2065 3152 1112 1648 2488 2059 3708 3348 
1439 3286 2346 4217 3706 2167 4044 1115 317 
3336 332 3341 781 4016 2937 3743 2823 3755 
3161 3746 1588 4180 2434 3117 3731 4176 2905 
2871 3372 709 4175 1108 4115 2542 4188 3601 
2397 4105 4195 236 3721 1731 1610 4196 2273 
2040 2884 3257 275 2729 4126 2870 3263 285 
700 97 3740 1534 4189 3838 1007 3745 3246 
670 711 1093 2816 1892 2022 665 3289 114 
2014 784 3379 3422 298 3368 2459 3679 1099 
4162 668 1978 1481 2827 3302 2879 659 1585 
1148 2448 4194 3762 3722 2689 2896 2743 2812 
3676 2468 3774 3689 1094 2044 3176 4295 3737 
1530 4032 3301 299 3314 3247 2456 4284 4119 
4125 4131 293 1976 1089 1982 3304 958 2880 
2739 723 1138 3747 2389 726 1133 1983 3593 
1161 4171 314 304 3681 1008 1547 2017 3674 
1536 3694 2390 2388 3281 1582 115 1173 3309 
4129 3312 3248 1134 727 164 1160 2867 3319 
661 2811 2892 3546 706 3295 1139 4183 1463 
2447 3375 251 3697 3413 1205 2737 677 3709 
2747 2011 309 4159 3324 2096 3307 188 2432 
2461 381 279 3250 1540 273 2826 2399 964 
246 1166 2683 3738 1529 1107 2454 708 704 
1632 2010 3744 4158 296 1222 1688 4056 1465 
4192 2304 2046 4163 2446 2313 2824 2402 291 
701 3750 1987 1157 3794 2991 703 3693 713 
1577 1604 274 3249 2444 2519 1135 3756 3991 
3688 2873 2465 862 2900 1562 1566 4151 4226 
3407 2449 3335 2005 1576 2043 1045 2061 257 
3821 3786 267 1977 3334 697 2164 3410 3451 
2837 1642 4316 1958 4205 3871 338 3798 4096 
226 2903 3700 1122 132 2906 4095 3638 688 
742 2850 712 3691 1179 325 689 2899 672 
3361 2798 1286 1193 1567 2154 2489 2173 1513 
3771 2001 3219 347 2865 3765 3351 2050 769 
2382 333 748 4148 2085 1238 1421 3343 339 
557 4072 4147 242 334 762 4137 2839 2418 
2429 2066 1487 2910 1178 2806 1931 2500 3819 
258 1677 3226 2076 3768 3449 2882 690 779 
331 2842 2901 1997 752 681 743 4154 774 
763 4235 1626 754 2908 4210 3243 1643 2512 
1198 3337 2385 845 1184 2000 141 119 2381 
2844 3712 1875 2055 3288 3704 1568 2455 3804 
1199 2103 1656 4019 759 3356 266 3436 2424 
4213 3836 1633 1630 3340 3759 2789 4142 254 
1603 3720 3358 2916 3282 3801 355 3806 318 
348 2345 1736 3714 2284 2715 3775 2797 1655 
2843 2054 3664 2089 4157 4234 3331 2377 2458 
270 767 4059 1627 1195 2509 3799 1213 764 
2925 3359 3264 303 1523 1300 3795 3447 4229 
2716 3342 2929 1181 2423 2508 2852 3584 744 
3363 2474 1201 1649 1095 1114 3303 1989 230 
2117 1673 2970 3412 836 2129 3841 3383 2144 
1661 2143 3809 401 2563 4135 2950 2141 3839 
2562 1265 4279 2898 3739 2135 2565 394 2543 
4178 2116 1105 3315 1695 276 1985 4297 3409 
1550 1703 2099 2983 4274 2897 286 3808 3832 
2968 4245 3843 3849 1980 4247 1268 4273 3854 
395 2963 2940 1266 2544 3752 4250 2541 358 
3399 387 2115 3829 3811 3377 237 3403 1224 
1700 2025 807 4275 1218 4292 1271 2033 2094 
4255 4276 4168 364 829 3374 2138 3748 3380 
2864 1226 411 826 3856 4240 3402 1278 812 
392 2401 813 2527 1153 2974 4299 3408 2545 
1712 3291 3382 3844 398 4249 834 2524 3734 
2439 234 1715 2858 1252 3852 2521 4243 2133 
4277 2142 3384 831 3381 830 292 408 363 
1672 2121 1663 4312 3725 4128 2969 3855 1707 
2547 3860 2391 1689 3376 1145 1258 2951 788 
1668 302 1662 4302 2137 4244 2469 833 822 
2975 2140 1580 2093 4281 3675 2952 816 827 
782 825 2128 3833 1669 3858 2832 1970 2031 
2977 390 2518 1248 3018 368 1601 1665 2546 
3847 2118 3840 2548 717 3807 4124 2092 2946 
1272 3427 2989 399 3835 1984 361 2556 2943 
1175 402 356 2820 2941 3415 3857 1699 4278 
835 1708 1698 1225 406 1613 1660 1260 2517 
806 2526 1091 2127 2030 809 2893 2515 2557 
3741 4288 4285 3329 1164 1545 2885 393 4289 
820 1713 403 2986 4298 3425 1137 657 4280 
2942 2987 1264 3724 369 4261 2985 4328 3003 
2981 4301 1283 4296 1151 3881 1229 1254 2450 
410 2124 854 3848 404 3320 780 795 1263 
1250 4114 4242 796 4193 3426 2048 2522 1709 
1246 2967 2949 438 1587 1303 840 3805 2895 
2438 2549 2948 1098 1670 2536 1685 341 1221 
3458 683 3792 867 2984 2586 3395 2953 4269 
2158 353 2958 1704 1614 2412 4309 2107 4286 
2157 3344 4238 440 271 4308 1554 3766 1678 
2964 4272 819 4317 3011 1555 1666 2834 1204 
4264 1301 3699 4307 422 1230 2994 3394 3443 
1292 3385 2924 1240 3884 2532 2921 1622 2587 
2169 848 2098 437 4331 3874 3419 1557 1561 
4320 2483 3021 1723 2160 859 3454 3863 1683 
850 435 1741 1216 1241 1569 1732 1725 2976 
817 2530 3012 261 427 3013 2579 4259 377 
3432 4321 2909 2838 3016 793 370 3437 3885 
1189 4326 3800 2499 2075 383 262 2534 794 
3386 419 335 2491 374 860 866 2165 3002 
1290 1207 847 1236 4332 3446 1680 1738 2490 
4271 3433 1116 1242 354 3393 1180 3770 853 
3429 4305 1679 2104 1280 2004 2162 2105 3440 
3814 3828 2430 434 3015 801 2148 3824 3009 
1748 1743 682 2422 416 3452 1294 1719 379 
1247 3715 4313 2495 2961 2566 3455 3438 1285 
849 2496 2172 421 846 2569 2590 2111 2156 
3882 1118 2146 2113 1297 2417 1304 4310 260 
2476 2584 3826 2535 1624 2955 3820 1634 750 
1636 863 1733 360 371 3776 4258 1993 4266 
3868 2573 382 3780 4208 4303 1306 1727 839 
802 2960 425 4327 1302 2163 3442 864 3000 
2571 2575 753 1239 4329 841 1684 3431 3825 
3388 1111 4209 1737 856 798 2594 3876 2411 
2155 2477 1721 417 741 3010 3878 3007 2475 
2166 844 2583 1299 4262 2567 1244 1729 2153 
2159 2959 800 3269 432 3004 3434 3456 3397 
3453 1625 3008 3886 378 3367 2529 1730 1744 
2528 426 3777 4260 423 3390 3445 3879 2492 
2100 2171 418 2993 441 758 2081 2588 2174 
2997 1734 3391 1676 4239 1726 797 373 3736 
1541 1720 1690 4253 2857 1717 3262 365 1606 
2972 2029 2409 1256 2126 1739 2047 3850 2540 
2125 1269 4179 718 4133 2095 842 1152 2956 
2406 838 1594 2945 2971 288 1671 2947 4116 
1714 3735 3378 1277 2523 2134 1543 3441 2550 
4293 2539 4181 2122 405 396 2552 1140 3404 
810 2123 2553 2097 2145 357 3678 3347 786 
2825 2132 1261 3305 737 4291 4246 2965 1276 
388 4251 1220 397 724 3853 1664 3873 3859 
2561 2558 3327 4134 2966 3424 1270 407 2944 
3810 832 3421 3406 1710 1533 1106 2869 3311 
2016 3813 658 2114 2152 1667 2032 1219 3420 
1227 787 2973 3418 2815 400 3851 2443 1692 
2130 1257 1262 1249 783 1223 1693 3297 389 
1255 3373 2978 3757 1243 2980 3428 673 785 
1584 1716 2560 828 664 3812 1597 384 1253 
1607 2887 409 359 2090 2120 241 824 4283 
1549 790 4241 362 2537 815 1694 4294 3299 
3865 791 2136 1171 412 3842 284 3837 2979 
1228 1691 2996 1697 2559 2520 3416 1217 3417 
3400 1251 252 313 4254 1705 391 3834 811 
721 1696 2531 2982 1172 1275 1702 2131 2988 
1701 3405 2392 3831 414 2486 2395 2920 2139 
823 3875 2110 2175 2855 804 676 294 837 
3818 1209 3355 2591 3815 3414 2911 1681 3782 
2151 3439 2482 1186 2119 2168 4290 1747 1740 
1305 1687 431 4232 808 1233 413 3802 3398 
3890 855 1295 4270 3816 2931 2426 3457 1274 
428 2538 2147 2077 1234 4306 424 1742 2106 
433 3014 4304 2840 1674 3270 2554 1284 2998 