# vtk DataFile Version 4.0
Generated by LIGGGHTS
ASCII
DATASET POLYDATA
POINTS 8767 float
-0.244942 0.00530284 -0.244733 -0.215351 0.00500704 -0.244481 -0.205363 0.00505317 -0.244976 
-0.195378 0.00523204 -0.244316 -0.185373 0.00504276 -0.244418 -0.174955 0.00512616 -0.244665 
-0.235167 0.00606485 -0.242234 -0.225358 0.00526146 -0.244579 -0.164592 0.00514505 -0.244426 
-0.156772 0.0133509 -0.0169981 -0.220071 0.0138107 -0.244999 -0.210093 0.0138705 -0.245006 
-0.200121 0.0140696 -0.245003 -0.190147 0.0140102 -0.244966 -0.180183 0.013665 -0.244612 
-0.170219 0.014027 -0.245013 -0.180011 0.00527517 -0.235975 -0.201118 0.0053893 -0.235925 
-0.244985 0.0142482 -0.238019 -0.163355 0.0150292 -0.237835 -0.164975 0.0053491 -0.234417 
-0.243026 0.0049479 -0.234922 -0.227635 0.0071317 -0.235033 -0.210338 0.00925388 -0.236149 
-0.192483 0.0107579 -0.235624 -0.172691 0.0120662 -0.235407 -0.235841 0.0127587 -0.234307 
-0.218908 0.0142929 -0.235079 -0.156433 0.0132723 -0.116132 -0.156156 0.00502748 -0.172293 
-0.235566 0.00499572 -0.228039 -0.21717 0.00520256 -0.229905 -0.207398 0.00518011 -0.227505 
-0.196961 0.00516582 -0.226826 -0.187192 0.0051601 -0.229008 -0.173078 0.00519283 -0.228113 
-0.157581 0.0052952 -0.227268 -0.225989 0.00541421 -0.225196 -0.245008 0.0138351 -0.228053 
-0.218768 0.0141801 -0.224407 -0.202254 0.0136679 -0.225941 -0.191003 0.0134421 -0.224864 
-0.180169 0.0124347 -0.228511 -0.166268 0.0127272 -0.227774 -0.217079 0.00534023 -0.21946 
-0.190411 0.00520229 -0.219244 -0.180636 0.00538763 -0.221441 -0.165585 0.00514762 -0.221286 
-0.244988 0.00494323 -0.2235 -0.236044 0.00511347 -0.218057 -0.200249 0.0053168 -0.217374 
-0.230097 0.0131794 -0.220416 -0.210075 0.012567 -0.21974 -0.18391 0.0144128 -0.217866 
-0.173533 0.0130215 -0.22093 -0.157716 0.013039 -0.220565 -0.244958 0.0053608 -0.213511 
-0.226452 0.0051717 -0.215212 -0.183914 0.00521155 -0.211655 -0.158071 0.00527884 -0.214286 
-0.209092 0.0052506 -0.212697 -0.173182 0.00513927 -0.214796 -0.221098 0.0141935 -0.214675 
-0.193631 0.0140325 -0.21509 -0.165701 0.0126362 -0.214578 -0.236368 0.00564315 -0.20808 
-0.218459 0.00509703 -0.20921 -0.16606 0.00518937 -0.207775 -0.194196 0.00545103 -0.20943 
-0.244974 0.0141153 -0.208378 -0.22973 0.0129234 -0.209784 -0.210227 0.0139862 -0.204679 
-0.202143 0.012072 -0.210225 -0.183978 0.0145856 -0.207829 -0.174079 0.0140325 -0.209315 
-0.158803 0.0126036 -0.207338 -0.245005 0.00502773 -0.203082 -0.22728 0.00523079 -0.203879 
-0.159318 0.00548936 -0.200321 -0.205179 0.00531963 -0.203501 -0.187109 0.00536015 -0.202188 
-0.17622 0.0051401 -0.205282 -0.220201 0.0137046 -0.204447 -0.201532 0.0139778 -0.199758 
-0.176944 0.0144781 -0.19975 -0.166819 0.0143313 -0.201622 -0.21861 0.00531081 -0.198901 
-0.209617 0.00536988 -0.194542 -0.19645 0.00530803 -0.198637 -0.236353 0.00635941 -0.198111 
-0.179331 0.00521767 -0.195756 -0.169127 0.00509601 -0.198253 -0.245004 0.0143391 -0.19839 
-0.236418 0.0151908 -0.19317 -0.17116 0.0136862 -0.00313496 -0.218737 0.0145198 -0.193656 
-0.187062 0.0145267 -0.19817 -0.15983 0.0138004 -0.193877 -0.244954 0.00495959 -0.193087 
-0.227456 0.00540669 -0.193648 -0.20088 0.00527751 -0.189677 -0.188748 0.00520728 -0.192257 
-0.23635 0.00606474 -0.18812 -0.218756 0.00536582 -0.188659 -0.163389 0.00522169 -0.190073 
-0.245011 0.013736 -0.188298 -0.227252 0.0141852 -0.18836 -0.20939 0.0140254 -0.189447 
-0.194981 0.0131368 -0.192235 -0.184346 0.0133962 -0.188581 -0.172198 0.00993725 -0.190067 
-0.244949 0.00511549 -0.183094 -0.209641 0.00536106 -0.184452 -0.192916 0.00527398 -0.182954 
-0.179706 0.00498177 -0.185707 -0.167123 0.00531047 -0.180722 -0.157188 0.0051249 -0.182236 
-0.227589 0.00513436 -0.183396 -0.236011 0.0147353 -0.183159 -0.217604 0.0141183 -0.183663 
-0.200384 0.0134747 -0.183836 -0.176555 0.0137048 -0.181582 -0.164561 0.0141412 -0.185082 
-0.201801 0.00531005 -0.178253 -0.175023 0.00536184 -0.174597 -0.236269 0.00544071 -0.178142 
-0.218675 0.00557599 -0.178602 -0.184701 0.00519313 -0.177054 -0.24494 0.0143285 -0.178324 
-0.226098 0.0137003 -0.178382 -0.208972 0.0135209 -0.178637 -0.191771 0.0143762 -0.178844 
-0.168907 0.0134242 -0.175135 -0.15877 0.0139468 -0.176928 -0.244959 0.00519715 -0.1731 
-0.165964 0.00510069 -0.170397 -0.244908 0.0143047 -0.126481 -0.227527 0.00521682 -0.173108 
-0.210347 0.00526553 -0.173078 -0.193605 0.00529094 -0.172536 -0.179872 0.0134729 -0.170866 
-0.234716 0.0144763 -0.173258 -0.217333 0.0140905 -0.173194 -0.199526 0.01341 -0.172608 
-0.184445 0.00512258 -0.167041 -0.174752 0.00536503 -0.164606 -0.23628 0.00561586 -0.168131 
-0.218932 0.0052491 -0.167966 -0.202127 0.00529519 -0.167331 -0.16061 0.0129674 -0.167143 
-0.244916 0.0146473 -0.168338 -0.226044 0.0141916 -0.168302 -0.207939 0.0138733 -0.16714 
-0.199096 0.0143145 -0.162374 -0.18971 0.0136117 -0.168155 -0.170422 0.0143828 -0.164923 
-0.236374 0.00567287 -0.158113 -0.219401 0.00516184 -0.15729 -0.193354 0.00520404 -0.162504 
-0.165678 0.00529969 -0.160408 -0.245008 0.0051076 -0.163108 -0.227653 0.00536704 -0.163058 
-0.210726 0.00534259 -0.162255 -0.244159 0.014123 -0.158388 -0.234759 0.0147747 -0.163274 
-0.226312 0.0135401 -0.157454 -0.216586 0.0134351 -0.162137 -0.207955 0.0140345 -0.157084 
-0.190252 0.0136079 -0.157711 -0.180458 0.0136494 -0.160421 -0.244991 0.00512151 -0.153068 
-0.210817 0.00532469 -0.152155 -0.202084 0.00536976 -0.15722 -0.193498 0.0051406 -0.1521 
-0.184432 0.00533686 -0.156317 -0.174575 0.00526739 -0.154613 -0.228183 0.0050903 -0.152422 
-0.181028 0.0134875 -0.00565619 -0.216921 0.0142963 -0.152072 -0.199034 0.013484 -0.151758 
-0.169638 0.0139717 -0.154945 -0.159871 0.0135597 -0.157186 -0.219582 0.0055145 -0.147303 
-0.202105 0.00526162 -0.146978 -0.236785 0.00729622 -0.147734 -0.16551 0.00574959 -0.150422 
-0.244586 0.0140995 -0.147135 -0.226181 0.0142997 -0.147485 -0.207858 0.0134903 -0.147051 
-0.189459 0.013753 -0.147736 -0.179567 0.0128288 -0.150224 -0.245002 0.00507863 -0.142339 
-0.211012 0.00531953 -0.142157 -0.193373 0.00546575 -0.142065 -0.183927 0.00522357 -0.14535 
-0.173819 0.00536609 -0.144645 -0.228319 0.00522926 -0.142431 -0.159139 0.0111097 -0.144889 
-0.217666 0.0140522 -0.142111 -0.199398 0.014053 -0.141653 -0.168382 0.0131707 -0.141562 
-0.202451 0.00528794 -0.136993 -0.174153 0.00523289 -0.134361 -0.236658 0.00782993 -0.137566 
-0.219745 0.00530849 -0.137298 -0.183994 0.00543629 -0.132649 -0.164371 0.00506762 -0.136391 
-0.226523 0.0138249 -0.137484 -0.208991 0.0139844 -0.137128 -0.189118 0.0137116 -0.137746 
-0.179113 0.0126145 -0.140236 -0.159568 0.01395 -0.135313 -0.245004 0.00496179 -0.132058 
-0.228521 0.00509751 -0.132438 -0.219948 0.00507691 -0.127304 -0.202671 0.00539984 -0.12689 
-0.211183 0.00535811 -0.132136 -0.193943 0.00544651 -0.13175 -0.157624 0.00554396 -0.127749 
-0.227299 0.0137571 -0.127132 -0.217995 0.0136421 -0.132089 -0.200321 0.0139885 -0.131658 
-0.179 0.0147573 -0.130452 -0.169048 0.0139618 -0.131617 -0.244909 0.00506686 -0.122046 
-0.228564 0.00507261 -0.122223 -0.211427 0.00515957 -0.122088 -0.236627 0.00802233 -0.127373 
-0.19628 0.011438 -0.122113 -0.188537 0.00517168 -0.123179 -0.177829 0.0054301 -0.124774 
-0.167762 0.00505121 -0.126596 -0.218719 0.0142605 -0.121999 -0.209187 0.0138303 -0.127032 
-0.188849 0.0151397 -0.12786 -0.172882 0.0138993 -0.122083 -0.162685 0.0133815 -0.123929 
-0.220039 0.0053223 -0.117001 -0.202534 0.00512815 -0.116875 -0.171727 0.00548883 -0.116396 
-0.161714 0.00510831 -0.118388 -0.236729 0.00763604 -0.116908 -0.245 0.0136932 -0.116478 
-0.227619 0.0142551 -0.117162 -0.20986 0.0140474 -0.117057 -0.182679 0.0137551 -0.120128 
-0.166422 0.0140873 -0.114457 -0.211317 0.00535647 -0.112102 -0.192209 0.0053491 -0.111634 
-0.181695 0.00534284 -0.114316 -0.245003 0.00497762 -0.111577 -0.228535 0.00530146 -0.111684 
-0.244827 0.0137948 -0.136792 -0.219027 0.0139802 -0.112027 -0.200463 0.0144562 -0.113549 
-0.185722 0.0132743 -0.109523 -0.176219 0.0140783 -0.112496 -0.219797 0.00512818 -0.106825 
-0.18443 0.00516493 -0.103726 -0.174903 0.00531484 -0.106907 -0.236814 0.00523031 -0.105854 
-0.201514 0.0054328 -0.106242 -0.164724 0.00528319 -0.108849 -0.243816 0.0140208 -0.104925 
-0.233472 0.0139028 -0.10214 -0.210261 0.0141285 -0.10706 -0.194823 0.0130013 -0.10543 
-0.169272 0.0133104 -0.104825 -0.159483 0.0141049 -0.106667 -0.245003 0.00527239 -0.100133 
-0.228009 0.00542144 -0.101139 -0.21063 0.00527689 -0.102131 -0.19452 0.00527911 -0.0990855 
-0.168041 0.00514689 -0.0991886 -0.158254 0.00526573 -0.101226 -0.221311 0.0138879 -0.102261 
-0.212655 0.0140403 -0.0968641 -0.203198 0.013399 -0.100009 -0.188056 0.0133914 -0.0980074 
-0.178913 0.0137679 -0.102241 -0.162303 0.0143264 -0.0969794 -0.236197 0.00533324 -0.0953414 
-0.219044 0.00521651 -0.0967317 -0.203031 0.00529635 -0.0938299 -0.177662 0.00538523 -0.0963622 
-0.161357 0.00536966 -0.0917217 -0.244938 0.0139163 -0.0949848 -0.227306 0.013405 -0.0942781 
-0.196448 0.0131483 -0.0925626 -0.171851 0.0132538 -0.0942107 -0.245016 0.00494167 -0.09015 
-0.225526 0.00508822 -0.0890262 -0.187692 0.00533699 -0.0917801 -0.236272 0.00498183 -0.0853289 
-0.212155 0.00499583 -0.0894984 -0.196141 0.00518668 -0.0864309 -0.171451 0.00510672 -0.0880849 
-0.241812 0.0136348 -0.0838891 -0.231719 0.0137985 -0.0841316 -0.21871 0.0125293 -0.0885758 
-0.205789 0.0135908 -0.0889951 -0.181217 0.0129009 -0.090729 -0.164795 0.013479 -0.0869873 
-0.245014 0.00508333 -0.0798304 -0.228242 0.0051336 -0.0793883 -0.189377 0.00515141 -0.0790604 
-0.18066 0.0053457 -0.0839511 -0.218546 0.00518903 -0.0817983 -0.205286 0.0051597 -0.0822438 
-0.16351 0.00509927 -0.0811953 -0.223019 0.0139844 -0.0792189 -0.211843 0.0126123 -0.0811034 
-0.198901 0.0134474 -0.0815147 -0.189588 0.0131062 -0.0852289 -0.17422 0.0137358 -0.0836306 
-0.155948 0.0135562 -0.0794607 -0.236786 0.00903693 -0.0757816 -0.21159 0.00513439 -0.0744723 
-0.198452 0.00536303 -0.0748723 -0.172651 0.00537637 -0.0769825 -0.244973 0.0141328 -0.0729972 
[...]
POINT_DATA 8767
FIELD FieldData 3
id 1 8767 int
39 4449 55 35 30 1081 25 66 200 
3540 4427 7057 7037 3558 3511 1775 169 920 
5298 3531 919 40 1799 52 936 37 42 
1777 3720 214 3566 1760 905 151 925 1038 
1944 3538 4396 6194 5315 5296 6185 4418 906 
890 939 1759 2653 11 3524 7063 7079 2645 
2688 4587 935 934 900 1926 3570 944 7944 
5264 1909 913 3567 1988 1771 5273 5322 5278 
3560 4450 2693 3659 48 2686 1804 2663 1758 
1806 6149 4388 5297 2677 891 61 32 1762 
2687 1104 2664 5321 6152 3545 3537 5299 33 
62 67 896 7 885 165 7933 4409 4421 
4389 2689 4406 7038 1812 34 1800 45 1050 
2662 7909 5311 2655 3515 1947 879 24 56 
1781 2697 3529 5304 2632 3564 3565 7043 3520 
222 3517 1786 892 51 3541 6187 5270 2656 
1795 1091 878 887 883 1951 3569 3530 3574 
3549 6174 3706 3 4444 63 1059 1816 1818 
884 3577 31 4401 2635 4386 3519 4448 1776 
2646 1809 64 1045 2690 2696 4459 5320 4404 
1982 1963 901 940 18 1912 4447 4420 4437 
3532 2661 1805 881 1772 2681 1076 914 2818 
3510 3523 1890 1770 1773 1821 1768 1790 902 
5309 2649 2680 2670 2822 19 886 1798 164 
1755 17 1100 1822 1780 2638 3573 2660 41 
1796 1810 895 2666 49 1101 1782 2667 4443 
5282 2637 3571 3513 1765 204 146 15 2682 
5329 3555 4440 1761 5 1802 1792 43 58 
4393 3568 4413 4392 5307 910 3562 880 59 
943 915 2678 3509 2679 2685 4574 3512 1791 
1779 904 1814 1787 47 3514 4434 4424 5292 
2683 6293 1803 27 2636 908 1063 4426 3521 
3554 23 1 46 1778 44 1788 941 16 
4397 7045 3533 4435 3544 1935 1801 2673 20 
894 889 8 196 3553 3542 2659 4442 2674 
4598 927 2658 2698 912 2675 3561 5275 1767 
4441 921 932 888 4 2669 899 1016 2644 
4417 4407 3557 4394 911 3527 36 219 933 
1813 6172 3575 1819 2657 2695 4411 3546 1766 
2640 9 29 53 3572 1789 50 928 179 
4415 893 5313 7018 3526 2650 2694 1763 923 
922 1764 1820 21 186 3550 13 1774 4452 
5263 2676 2672 22 1785 2654 2671 233 3563 
3525 2633 2844 12 1797 1110 1808 65 1987 
4403 4390 4405 1817 2643 1029 2766 938 907 
903 929 1056 1815 102 3516 4410 1794 3678 
926 978 26 14 57 6203 3539 3518 2648 
3548 2834 93 1783 937 1087 1051 1756 3552 
4431 4430 4446 3547 3536 930 931 917 251 
54 2652 2639 1769 6155 3543 3559 7895 4439 
1077 1976 897 918 924 7094 7023 3534 3551 
6173 108 6 10 246 1811 2692 1757 3615 
2647 2668 995 7075 942 916 80 1184 962 
1114 4504 3629 3639 6223 3709 2750 83 131 
295 91 4490 4499 4514 3614 3583 1846 946 
119 85 1886 969 1853 1793 3606 5341 2878 
1882 81 3630 134 2744 2761 1871 4516 3599 
5373 1116 3593 970 1841 77 302 5353 7105 
4469 4480 2753 4481 2755 2891 975 1213 1004 
2701 949 2757 1842 2719 3624 97 7112 2699 
3611 6211 4485 1877 1843 2736 1850 1006 6271 
1838 4510 4717 6440 3637 115 90 2731 1849 
1884 5361 3613 3585 4500 2869 2963 118 973 
1864 2881 1836 5336 4466 4486 1867 2704 95 
69 991 117 6258 4479 2703 5342 4458 70 
3592 89 1878 2930 959 1847 2743 4497 4487 
4462 4518 72 1829 1834 1887 986 1863 1003 
5365 5355 3617 4484 5395 4511 961 3820 945 
2717 1854 979 1001 255 252 4455 5332 4471 
4494 2008 75 2741 1866 1144 1868 74 1835 
2702 4472 3597 4463 3600 3579 988 2762 109 
1837 968 7124 3587 2722 4496 2705 92 2708 
2723 1855 2732 2078 2747 5392 1862 3797 2885 
113 2718 1879 998 87 1885 4465 3612 6270 
4508 2763 1825 1200 1872 2042 966 994 2752 
5381 3623 3588 4503 3604 1876 1859 1002 107 
989 120 6268 5380 3582 4473 2746 3581 987 
2735 2057 957 974 3616 3605 3619 3626 2745 
82 112 997 2714 951 1861 1848 2733 4453 
3800 101 129 1881 104 1869 100 2715 3580 
3598 2724 2709 2721 2951 971 1826 1833 980 
132 123 5376 952 1856 1009 1873 964 293 
2716 4477 3591 3594 3607 1830 2713 99 2707 
2720 122 86 2739 5330 4495 3596 5366 4507 
4476 5357 1865 996 1181 111 1832 1874 7144 
2711 2751 1206 1008 121 1149 3589 1851 982 
3621 3636 3586 3774 103 1883 984 2924 105 
116 78 1831 1823 3632 2710 3620 130 947 
976 1010 960 1858 6243 3641 2962 3763 1999 
1857 114 2028 5390 4513 4467 5394 4501 4512 
1828 106 1824 993 84 124 110 2081 6254 
2725 985 71 963 2728 1880 981 5377 5334 
4475 1000 2749 2737 2748 2894 1840 125 3628 
6222 2740 5346 3610 3584 992 1860 1827 98 
1991 3640 3625 3634 2024 1839 2738 2764 983 
88 3601 5351 4502 3635 2742 4468 73 1888 
1852 958 2756 126 2700 5363 2948 3826 76 
94 2730 3633 1007 972 1155 7148 5360 4474 
5385 4489 5349 948 954 4491 2760 5344 5533 
79 309 1005 1844 1870 2729 967 1119 8011 
6251 965 128 953 133 1845 1146 3578 950 
977 3608 3595 5335 2727 8009 8204 6388 4482 
4464 6199 7951 7900 7911 4436 4451 2793 7945 
4425 7949 4540 7915 7959 6145 7070 8126 5327 
5281 7020 5405 7068 7074 7962 4419 8108 8103 
7923 6154 7161 6153 4399 8116 5265 7033 6163 
7941 6159 6166 6176 7247 4412 7143 8063 7920 
6186 8076 7046 7935 7082 5269 7073 6340 2665 
7919 5268 6204 6158 6156 7083 7910 7078 6197 
4402 6295 7029 7180 6160 7058 7948 5418 7040 
7034 5302 5300 5308 7952 5305 8086 7061 7898 
5457 7022 7958 4422 6196 7936 7921 7059 7906 
7028 7230 7932 6168 4583 6344 6140 5319 5301 
7235 6162 2865 7024 6178 6190 6348 8101 7918 
5286 4438 2642 6161 7021 6284 2651 5283 4433 
5438 4416 4400 7077 7917 8087 6148 5279 5276 
7903 6171 7186 7979 6180 7072 3685 7961 7041 
6179 5415 7062 7913 7950 7171 7175 7897 5284 
5310 7032 7049 7213 6198 7081 7896 7934 6142 
5266 7183 5291 5272 5306 6164 5318 7912 5293 
6184 7929 4414 8042 7902 5303 7065 5290 7069 
3576 7055 7036 8111 7967 7947 6151 6169 5317 
6165 7048 6193 7905 7914 6200 7924 7942 5312 
4445 4408 7916 7047 7039 5288 4551 6143 7080 
7930 6181 4428 5289 5271 5277 6144 6141 7899 
7027 6292 5328 7089 5316 7922 4398 7067 5324 
7955 6191 7946 5326 7060 5294 6175 6157 7957 
7051 6307 7054 7926 7943 6177 6206 6202 6305 
5267 7931 7017 3726 3535 5325 7052 7064 7940 
7960 6366 6195 4395 7050 7223 3528 7925 4432 
5285 7035 6201 7192 4423 7904 7907 6188 4429 
6300 7963 6189 6170 6167 6150 3556 6182 7939 
7901 7953 7053 7956 6147 7042 7056 7954 7066 
7938 7908 2691 7937 6232 6351 7031 5280 3670 
3522 2641 6146 7030 990 7076 5295 2684 6192 
3631 7071 7165 7025 6183 5274 7150 4391 5314 
1784 7294 7975 4623 6205 6260 6217 7103 4387 
6256 8013 7026 6265 8027 7927 6212 7969 5575 
6395 6228 5348 7966 8008 4639 8023 7122 8206 
8154 7984 7985 5388 5379 6252 6474 4647 8021 
7278 8226 7113 6417 6257 7971 6241 7087 6261 
8169 8225 8002 6233 5393 7084 7096 8217 7147 
7141 4671 7097 6242 4461 8219 6237 6405 7988 
7106 8020 6214 8172 4498 6426 7136 7970 7993 
5369 7095 6266 5338 5333 7120 8022 6219 7090 
7976 7102 5364 5331 4667 7128 6253 6466 3622 
7140 6210 7109 6208 5371 4460 7107 7121 8018 
7964 8017 5378 8003 8182 6247 7132 6227 8006 
6216 5339 7992 6218 6410 7137 5383 7139 4515 
6255 7330 7999 7126 7104 6244 7996 7145 4670 
7092 7987 7123 5370 7978 7116 7989 8029 7267 
7292 8015 4478 7995 4456 6264 6209 7129 8178 
7130 7284 6225 5389 7974 8024 4470 8171 8025 
5340 7110 7093 6236 6263 8007 8189 7115 7986 
6230 5356 3602 5382 5350 8028 8016 5551 7972 
7968 6262 6448 5368 8019 8174 6224 6213 4517 
6221 4483 6267 3793 8012 7088 5372 5391 8001 
7086 8004 7127 5352 7277 7146 4680 2712 7091 
7099 7111 7108 2706 7998 5347 6406 7114 5343 
5374 4488 7965 4457 3603 8000 4493 6220 8196 
6469 5375 6269 7983 5386 7085 6231 7991 7118 
6245 5345 5560 6207 5555 7973 7981 7149 7131 
6250 7142 8010 7997 6240 4454 6248 5367 6238 
8177 5387 7990 6226 6439 4696 8005 8014 3627 
7994 6235 6215 7100 4509 7125 7101 5354 5384 
4505 3618 6249 5517 8026 5337 7098 6229 7133 
6234 7134 8183 6378 6272 6246 5358 7259 7119 
7977 7980 5362 7135 7117 3643 2734 5359 8187 
2754 3638 6239 4506 5287 3590 1875 3609 2726 
4492 3642 7138 155 1018 909 232 1097 216 
1221 2823 144 1290 6357 7019 1902 7189 5493 
5681 7242 2824 3063 1019 170 898 1943 1898 
2634 4546 6358 2796 2806 3703 433 218 2775 
2118 1014 198 4590 2864 1013 1084 1917 1953 
1980 1942 1972 1108 1078 2811 3652 2788 2842 
4611 3646 3737 4535 7178 180 1973 2782 3697 
1047 1035 1957 5482 2821 2790 4530 3653 203 
1903 1012 5420 1070 4593 325 2854 4602 3021 
1011 1037 2841 220 139 1948 3681 3649 3741 
3660 2791 3665 3718 1985 1967 1049 1040 1918 
1956 2094 4548 3664 345 1941 3688 1938 3698 
1057 163 235 224 3730 2851 2819 2986 2827 
201 1073 136 2846 1025 3724 3713 2813 4584 
2794 4519 4527 4537 1065 150 1979 1096 1893 
223 182 3645 4555 1072 3675 2832 3729 2140 
2767 205 2797 185 1939 1039 2814 3668 4567 
2850 1962 1914 1928 1910 195 3714 154 197 
5436 2783 3692 2863 3712 211 221 1026 176 
2848 1027 2768 4544 5454 1920 3711 2847 1974 
1897 2 3699 1043 1107 1111 1925 3728 2805 
3721 3716 3672 1966 1023 202 1927 1986 1044 
1020 3648 2800 5495 1936 2860 2861 3736 234 
1940 1958 1092 174 1064 184 4579 2778 2815 
3725 5467 3017 189 175 2857 1915 1106 209 
1048 2816 2776 2773 3682 1931 2771 1949 1034 
171 1067 4571 3694 2804 2795 1913 2789 1896 
1030 207 213 2849 1075 1891 1889 2828 2836 
3715 2838 1094 1083 1041 212 143 141 4568 
3691 2792 3704 1937 2099 3687 1109 1071 60 
2786 2833 4561 2774 3667 4556 5492 2835 1952 
208 2856 177 2119 28 882 173 135 1964 
2765 4588 2770 3651 3723 1924 391 1088 1028 
190 1960 1954 4589 3695 4612 3650 1052 1904 
1945 191 159 1894 3740 5488 2807 137 1074 
217 167 187 1984 4520 4549 2852 2777 2830 
1242 206 172 1036 2780 157 1082 4615 4523 
2799 4564 1919 149 1086 1079 1099 1977 1933 
229 1965 1911 2831 5398 2772 2840 2853 227 
38 1968 1058 1062 1950 3744 4547 3719 2801 
3065 215 193 1090 194 4599 1042 1899 181 
3702 2809 2808 158 145 1046 1969 147 1017 
168 3742 2784 4533 5463 2829 1908 2837 1921 
3674 3693 230 361 2855 4550 4569 1021 1895 
3690 2817 140 1033 1975 1102 156 1060 4573 
3658 2787 4609 1955 1268 1971 1031 188 2845 
1105 138 2798 2779 1978 3731 4539 3710 3677 
3743 199 192 1900 160 178 1093 3701 5429 
3708 4563 4553 225 1085 2812 1066 1248 1981 
166 2825 1983 2810 2858 1923 2826 1069 2802 
1054 1930 228 1934 161 1892 3673 2769 3727 
1929 2859 3669 1907 1916 1095 1015 1946 279 
4606 1932 3738 3661 2785 1989 3722 1055 1089 
1117 3030 1970 1901 3705 4578 4582 1068 2953 
3696 1112 1961 1080 300 1905 1959 153 2886 
2781 2862 2843 2893 2052 162 142 256 303 
296 210 2897 2945 1169 1209 2803 243 183 
3828 2959 4721 2005 2938 6431 274 1134 257 
2070 2025 2086 269 1199 2221 4682 2077 1906 
2888 3777 4705 1211 1168 96 2087 254 1183 
2006 2932 2867 3796 3799 4637 4023 335 1124 
1166 3843 2254 2919 2937 3832 2941 4715 237 
2036 286 1121 338 1197 2007 3813 2960 2946 
2915 2925 3753 2901 2026 2056 240 322 1382 
4711 3768 2072 2942 3798 1995 2073 320 1133 
273 1361 3845 3784 4712 2889 2247 4032 271 
1118 2896 306 1098 2053 1126 1406 2913 3748 
3807 2910 4853 1125 68 1177 321 2014 2956 
2071 2935 3805 5521 2902 3163 2033 2961 290 
1993 276 536 4695 4649 3837 4626 3759 2016 
3782 2054 248 2058 1387 326 2061 2916 3834 
3801 3773 2027 3113 241 1198 238 1148 3754 
2877 3746 2013 1163 1990 1191 242 955 1153 
1193 317 2955 4669 2064 3809 3838 4660 3124 
1192 1174 1178 337 311 1161 3767 4689 4625 
2075 5571 2009 336 247 2911 333 498 272 
3842 2866 4685 3824 3760 2920 2940 297 1182 
339 1131 503 2906 282 2954 4646 3745 2011 
2207 312 244 2035 1140 1202 451 3757 2943 
3779 2079 3783 2048 304 1160 1357 259 307 
1189 3803 3791 2045 2084 4650 3788 3833 268 
2074 315 1992 267 1195 281 1998 2890 2882 
3766 3785 3102 1167 328 1137 1154 324 2010 
3749 2020 3775 2030 4034 1122 323 330 2004 
1175 2957 3810 2253 1170 2031 332 291 5543 
2051 4632 2936 2047 2069 3829 4628 1128 262 
313 2034 1142 4653 4710 2908 2060 2918 2210 
278 316 1188 2018 1212 3769 2895 2076 2870 
2884 3840 2905 1165 1145 1115 1147 308 329 
2947 2041 2023 3839 2875 2927 3750 2017 2040 
2067 2899 2921 3751 2088 2872 3821 2871 270 
314 260 2062 275 1152 2083 1120 2917 1173 
4697 3815 2883 4630 1185 1186 327 2049 1194 
2873 2900 4651 2082 3817 2876 3819 5577 1158 
236 284 1162 2063 253 3795 2037 2002 1190 
266 1113 1156 250 1204 2874 2038 3756 3812 
2922 5539 2001 1138 1135 1176 2059 289 3825 
2904 3830 2933 3827 4681 2965 2055 2066 1214 
1171 1196 331 277 2039 287 1179 4666 3755 
2044 2892 999 1164 1127 2758 3747 3844 2964 
2879 1376 3966 1203 1208 1172 1329 280 1141 
2080 3835 4656 3772 3836 3822 127 2012 2003 
1187 1143 2043 305 265 2019 2929 2029 2868 
4662 2907 2032 2021 2966 4716 2089 4661 2903 
3771 2000 1996 530 2022 3761 264 3789 482 
5566 3778 4688 6387 2926 285 294 2046 1129 
1123 301 261 2931 3806 3780 7348 3823 2887 
4698 288 245 2944 1139 3786 4707 1151 2065 
956 239 1205 1159 6442 2934 4643 4706 5717 
1157 298 1136 1207 258 1201 1340 2015 1130 
1180 2759 2950 6397 5569 6375 2949 2068 3752 
6434 2928 1132 6463 3762 4657 8066 7044 6353 
8128 6286 7174 7170 8271 6491 8093 8051 6298 
7168 8123 8104 7237 8043 6276 4576 6277 7176 
6281 8071 7248 7224 7201 5486 7216 6289 7204 
8055 8263 6275 5478 7198 8030 7209 8109 5443 
7199 5481 5466 5403 5421 5440 7202 6346 7205 
4581 6361 7182 8069 5470 5427 8070 4596 6302 
5428 8057 6341 3732 4640 5496 6303 6574 5462 
4610 4575 8255 8050 5425 4580 5461 4559 5452 
7155 5414 8119 8048 8059 4619 5679 5475 5476 
8124 6321 8125 7187 5442 6342 5453 6374 3644 
6273 8068 8032 7160 6373 6370 5479 4604 5434 
4542 6301 4605 7245 7219 8253 4565 7210 3717 
6313 7232 8035 7200 4532 7177 5459 7159 5480 
5404 6320 6364 8044 7243 6350 8090 8288 5458 
6318 5449 5413 3671 6367 5487 7233 6569 7167 
4536 4534 5412 3735 6290 6285 7157 5433 7194 
6362 7208 4528 4614 4617 5448 5473 5410 7169 
6372 6369 6274 6294 8045 7449 4620 4618 5447 
5485 3663 5483 7173 8099 8098 7152 8273 3680 
5455 3734 6544 7215 6359 8102 7217 5419 7195 
6333 8100 8049 7240 5456 5469 4585 3689 6288 
4525 7190 8053 8107 7425 4613 5407 8061 5323 
5399 5673 5621 7181 8039 5401 5423 5439 8088 
6363 5426 5396 4591 5674 6354 7158 8114 8040 
8067 6310 7185 5464 7166 7154 7236 6279 8034 
4616 8095 8085 8285 7179 7239 6325 3656 8130 
8117 6343 8293 8056 8031 4608 3676 8113 5437 
3655 4522 6328 8105 7221 8079 8121 7184 8073 
7249 5397 5408 8089 8047 5402 8092 7222 6331 
8033 8115 7220 4603 6280 4597 4570 5416 6311 
3707 8074 8075 7246 4524 5484 4601 6297 6326 
5490 4586 8058 7197 7228 6360 5450 4577 8041 
3657 8097 5489 4545 3683 8120 6291 6319 8052 
5411 6308 7250 7241 7156 7164 5422 5465 3679 
4817 6299 7206 4791 5441 6335 4572 7212 3733 
8064 8078 7229 7203 7211 7226 8046 6317 5430 
4600 6352 7153 6332 5471 4554 8118 7162 6296 
5474 6356 5445 6339 4736 8106 5468 5451 8096 
6371 5491 8080 8037 8083 7928 6322 4562 6278 
4595 7151 8062 6324 5424 5505 6337 3654 5460 
4592 4538 8077 6304 7193 6349 7227 8084 7231 
8072 8129 6336 5432 4607 4552 7172 5444 3938 
6323 7214 7244 8091 7191 6314 6327 4529 5477 
4594 5472 8036 8247 8127 5494 4566 5409 4557 
4531 5400 5417 8112 8038 8094 7188 7234 3684 
4693 6345 5406 3686 6334 6329 8122 7218 6316 
8081 4560 2820 6390 7225 4679 4526 7207 7196 
6306 4541 6347 6283 3662 5446 6454 3647 5435 
3700 3739 4543 1807 2839 3802 7258 6309 8110 
5532 6330 8192 7324 7339 5540 7338 5589 8065 
6470 6368 5508 7327 6312 7313 6338 8060 8434 
8415 5513 8166 5572 8179 7309 8207 5586 8363 
5527 4678 8152 5554 6635 6428 4676 6382 8153 
7304 7460 5564 8054 6443 4633 4701 5563 7286 
4673 8201 6457 7266 7287 7303 7311 7298 5561 
6414 4720 3841 8140 8380 8214 5507 3792 4622 
3816 6461 7346 4684 4874 8132 6403 5583 6418 
8228 7336 7269 5567 6416 6644 5516 8386 4668 
7317 8209 6429 8151 6471 5595 6467 6451 7326 
7337 6435 8155 5590 7273 5557 7282 3776 5594 
2952 7345 8231 7276 8168 6389 7350 7323 8352 
4718 4631 3831 3770 6459 6385 5718 5546 7283 
5519 8385 7264 4677 4674 8191 6408 6401 8160 
5732 7295 7349 7268 5570 3781 4708 7289 7310 
6450 6259 5581 8141 8139 7509 5530 5531 3814 
5526 4692 6436 8164 8194 7252 7255 8230 7332 
5538 5502 5596 5510 7281 7347 6377 7297 8137 
7340 4703 5528 5548 6472 4663 6400 3787 6393 
8199 5512 7982 7279 5537 4702 4694 5503 4645 
5515 4699 7296 6415 7315 7305 5580 5550 5500 
5506 4691 5497 5544 6386 7334 7275 7280 8175 
8150 8165 5534 5552 6473 8170 4621 3804 6462 
5549 8223 8138 6379 8136 4627 8190 5559 5542 
5597 6437 8184 7300 6468 7260 8205 4709 7299 
7285 2909 6464 5520 7274 6396 6399 8149 8218 
5518 7263 6383 3764 6455 5529 6433 7321 4891 
7542 7333 7351 8208 3818 5591 5558 8156 4648 
7251 4672 5574 6460 6412 8221 7262 6444 5766 
6427 7489 6441 4719 6425 4686 3975 4704 5556 
8163 8213 5504 6458 5592 6445 5545 6447 7254 
7325 7261 7312 6419 7270 6449 5573 6409 5553 
4636 4713 6421 6432 7342 6404 6476 6423 5499 
4690 5576 5579 5509 5584 5578 5587 6384 7335 
8181 6392 8378 7314 4629 6430 7272 5498 6394 
7265 7291 8131 8188 7302 7306 6456 4655 5565 
8185 5585 6398 4642 6452 8220 7293 7308 8135 
8336 8143 3811 8134 7329 6422 7331 8147 8200 
8133 5511 6380 2912 4664 6376 5501 8161 7301 
8198 8167 8412 8180 5536 6453 5593 5525 7322 
4658 5562 8142 6420 8144 4683 8158 5541 6381 
8210 4644 6411 4714 3765 5535 4652 4638 2880 
4675 8224 7469 8148 8157 8146 7318 4624 7344 
4842 8173 4641 7328 4665 8212 5582 5514 7341 
8159 5523 7271 8203 8162 8193 8227 4635 8222 
7253 6407 8186 7316 7257 7319 7343 6438 6465 
6413 8176 8216 6475 5568 8195 7256 6402 3758 
3794 5547 4634 7290 4659 1994 5522 2958 2085 
4700 2050 5588 3976 2898 1316 346 1266 1229 
396 604 2124 3917 386 3003 6552 2189 4748 
3913 4951 1314 2185 1459 1022 1061 2996 406 
8322 4790 3848 3046 4805 1351 3860 1032 1264 
399 3930 4757 3856 3933 1276 3043 1228 2155 
3025 367 5672 2166 5688 5700 5644 4750 1053 
1286 1301 3052 2141 405 2186 1304 2129 5692 
6568 3042 3892 3911 5641 5889 4945 352 3051 
1251 360 2373 3039 4737 2139 3875 4803 2998 
152 2100 2152 1224 427 359 3033 4739 3861 
3040 2120 402 3068 3905 403 2180 2090 1217 
1303 2154 3928 5667 4723 2978 5659 3876 3019 
3010 3000 2125 1283 3855 2994 4745 4821 3874 
3004 2318 1299 393 351 3918 417 2159 1279 
358 1309 3896 3878 3939 231 439 2172 431 
2168 3877 2105 5687 3931 3947 3929 4747 3944 
1277 2095 2163 381 1260 429 2149 2979 3870 
2116 3015 374 400 3028 2113 1302 411 2138 
2362 3907 2131 2134 3941 3888 1259 1285 2133 
4785 2992 2967 1256 2191 3927 4778 1262 369 
1230 398 424 2109 2183 1236 3002 3027 3045 
3054 2150 1223 1261 1272 365 384 3058 1103 
1284 3880 1271 3916 349 441 357 1273 1220 
2110 2153 3862 4729 4822 2143 4952 2126 2187 
1278 368 375 148 2989 2146 1244 3891 2993 
410 376 2182 350 3066 3872 5650 3890 4794 
3945 2997 1250 3863 2114 1231 1240 340 389 
3909 2144 2982 3847 3858 394 1428 2238 370 
430 2999 1234 2971 2975 4731 4733 2974 2145 
2995 3024 1312 2165 2167 3894 1232 1247 2158 
3032 4783 3036 2161 1296 414 1255 2156 418 
2104 3923 3882 3883 3062 371 1245 1291 401 
408 4762 1265 3873 3850 2097 4749 343 412 
2111 3001 2181 1226 378 3175 3908 469 4823 
2170 3031 3859 3006 226 1222 1257 1297 344 
2976 3050 3061 2103 2130 2108 425 2157 1233 
434 2174 3013 3854 2991 3897 3049 2179 3064 
1313 1243 428 2137 613 2101 3864 3934 2106 
1275 2132 373 413 1253 404 421 3048 3889 
3005 3906 3895 4811 364 356 354 436 420 
2972 409 3925 4787 1295 2977 3047 2098 3055 
363 1305 2188 3037 2123 3904 4764 1024 377 
1239 2171 2127 1287 2988 2178 3926 3846 3067 
4738 2160 3868 3239 347 1288 2190 2177 1227 
2096 1306 2985 3057 3910 3884 2107 2093 1263 
348 1218 415 3014 3898 5633 3011 1308 362 
341 1254 390 2147 1315 1267 4777 3924 4722 
4812 2092 2176 2112 388 2151 2148 2121 1922 
3009 3886 3059 3887 3053 2973 392 1215 2135 
2162 1280 355 3879 2128 2173 3857 2115 3268 
1293 1289 437 1225 1237 1396 1298 2970 3940 
5649 3942 3034 4732 1274 2117 2175 1238 3026 
2984 3022 3008 3853 3865 2990 4889 426 1252 
342 2980 1307 1294 3060 2969 3038 2169 2136 
3936 1219 1366 1235 1292 489 459 1359 416 
483 453 440 2223 3083 3157 3078 3020 2987 
1331 353 516 1258 614 3932 4031 3018 1349 
3156 4045 3012 397 263 1344 2218 541 2192 
387 2225 3098 3963 3129 2256 299 1326 537 
496 1249 526 3090 2193 3991 4000 2231 3159 
283 1416 531 492 2197 3790 2213 3104 3117 
1403 3371 475 485 473 1339 1383 2275 2214 
2240 4893 3150 2266 3119 442 462 1404 1355 
1368 3988 500 4015 3993 3948 4017 2217 2208 
513 2268 2263 1365 2255 1402 3158 6638 2219 
3069 1381 1415 457 1384 1324 446 3153 4826 
3091 3096 3115 3143 5727 3135 1385 1377 3140 
491 3109 525 444 1370 3999 2287 3990 4033 
5788 2273 2195 1392 3081 2248 2252 3112 4018 
3120 3086 4878 1343 497 466 518 1389 2259 