# vtk DataFile Version 4.0
Generated by LIGGGHTS
ASCII
DATASET POLYDATA
POINTS 4294 float
-0.15065 0.0140746 -0.244813 -0.214146 0.0119049 -0.244957 -0.204096 0.0119977 -0.244874 
-0.192809 0.0138487 -0.244823 -0.179975 0.00248495 -0.244842 -0.17077 0.0121025 -0.244412 
-0.16086 0.0133019 -0.244982 -0.141085 0.00714678 -0.244498 -0.130371 0.014752 -0.244954 
-0.244322 0.00471349 -0.245033 -0.19766 0.0123282 -0.0618407 -0.225022 0.0117149 -0.244867 
-0.178241 0.0104889 -0.169366 -0.135821 0.0107894 -0.0343718 -0.209662 0.00949271 -0.232119 
-0.184564 0.00917896 -0.234441 -0.146785 0.0129777 -0.235652 -0.131705 0.013325 -0.234924 
-0.229952 0.00978737 -0.00390413 -0.198276 0.0115512 -0.235908 -0.17303 0.0097927 -0.234778 
-0.163194 0.00793845 -0.234784 -0.243608 0.00243813 -0.235357 -0.157194 0.0139288 -0.19501 
-0.219979 0.00269318 -0.236208 -0.162031 0.0118482 -0.0806153 -0.191818 0.0103108 -0.215013 
-0.187469 0.0115074 -0.061258 -0.155958 0.0136421 -0.0578716 -0.229826 0.0130035 -0.225839 
-0.216022 0.0037135 -0.226843 -0.179933 0.00773262 -0.225685 -0.17011 0.0087581 -0.224113 
-0.151316 0.00717327 -0.227624 -0.192443 0.00989239 -0.225044 -0.159488 0.0128483 -0.124059 
-0.238801 0.00806933 -0.224027 -0.205184 0.00250437 -0.224728 -0.187946 0.0023525 -0.21972 
-0.160177 0.00816118 -0.223098 -0.175717 0.00951746 -0.215593 -0.227492 0.00762891 -0.215817 
-0.214368 0.00248964 -0.215605 -0.163301 0.00260832 -0.215399 -0.150396 0.00468196 -0.215287 
-0.244787 0.00742727 -0.215131 -0.177146 0.011526 -0.132487 -0.183452 0.00907675 -0.0499116 
-0.156277 0.0127554 -0.21492 -0.236097 0.00860199 -0.208551 -0.226671 0.00250102 -0.206763 
-0.182262 0.00334909 -0.211226 -0.132966 0.00578339 -0.208096 -0.209089 0.0118754 -0.207056 
-0.199653 0.00452185 -0.212187 -0.143839 0.00684095 -0.201124 -0.216761 0.00246585 -0.204959 
-0.191074 0.00242647 -0.206598 -0.244964 0.00552954 -0.201215 -0.17228 0.00249573 -0.208922 
-0.162482 0.0113863 -0.20338 -0.153176 0.00521279 -0.197866 -0.209041 0.00248886 -0.198515 
-0.169271 0.00887024 -0.194256 -0.233886 0.0104334 -0.197599 -0.222455 0.00780763 -0.198687 
-0.199044 0.00246296 -0.198043 -0.1783 0.00243575 -0.200408 -0.19487 0.011903 -0.0499068 
-0.133419 0.00722316 -0.198043 -0.177565 0.00812311 -0.188198 -0.156138 0.00601622 -0.188377 
-0.143689 0.0100033 -0.191451 -0.190057 0.00246164 -0.193045 -0.234132 0.0024399 -0.182891 
-0.225772 0.00693019 -0.185983 -0.19919 0.00242779 -0.184643 -0.164166 0.00249472 -0.183702 
-0.142698 0.00800509 -0.181618 -0.134135 0.00593522 -0.186539 -0.243913 0.0124068 -0.182196 
-0.244953 0.0134951 -0.118062 -0.191023 0.00913069 -0.183536 -0.185479 0.00968499 -0.202721 
-0.215584 0.00660218 -0.172029 -0.245004 0.00642503 -0.174268 -0.206043 0.00903245 -0.176727 
-0.183704 0.00236679 -0.178258 -0.170966 0.00982372 -0.178688 -0.161674 0.0024338 -0.174068 
-0.133477 0.00688771 -0.175579 -0.226116 0.00551912 -0.174459 -0.197647 0.0145839 -0.176027 
-0.153776 0.00641991 -0.178683 -0.130012 0.0107438 -0.0255062 -0.1921 0.0078448 -0.17069 
-0.151676 0.00234396 -0.169335 -0.235263 0.0103475 -0.170213 -0.182336 0.0106398 -0.0709722 
-0.139774 0.0144398 -0.172439 -0.143093 0.00606137 -0.164182 -0.224104 0.0112435 -0.164064 
-0.212692 0.00440158 -0.162525 -0.183377 0.00230447 -0.165258 -0.172363 0.00254239 -0.165554 
-0.161248 0.00252207 -0.164137 -0.14496 0.011246 -0.0709132 -0.203088 0.0124083 -0.0332672 
-0.175977 0.0110119 -0.150733 -0.167291 0.0103465 -0.130986 -0.201918 0.00427061 -0.164098 
-0.194206 0.00896967 -0.158852 -0.244411 0.00783194 -0.164396 -0.152683 0.00246187 -0.156971 
-0.135989 0.011611 -0.159714 -0.229504 0.00820829 -0.155723 -0.188677 0.00255892 -0.153322 
-0.162278 0.00248541 -0.154102 -0.141767 0.00615565 -0.152682 -0.239585 0.00679081 -0.155708 
-0.214296 0.00281182 -0.150828 -0.172783 0.00241962 -0.154598 -0.244945 0.0100885 -0.145898 
-0.180465 0.00246475 -0.147608 -0.146856 0.00305254 -0.00350368 -0.167915 0.00621706 -0.146706 
-0.146028 0.0108688 -0.142958 -0.233758 0.00378839 -0.142344 -0.207361 0.00902616 -0.141154 
-0.22296 0.00847556 -0.14598 -0.175055 0.00444137 -0.139337 -0.157366 0.00698909 -0.146518 
-0.170281 0.0106019 -0.159674 -0.132638 0.012045 -0.141714 -0.243748 0.00242963 -0.134252 
-0.228177 0.00243602 -0.132013 -0.218125 0.00319945 -0.134532 -0.196398 0.00791554 -0.137287 
-0.136544 0.00244154 -0.133746 -0.173847 0.0108315 -0.203438 -0.186462 0.00983222 -0.137459 
-0.162958 0.00240827 -0.138298 -0.210829 0.00796537 -0.12906 -0.201565 0.00701756 -0.125358 
-0.187103 0.0055139 -0.128446 -0.177681 0.00236814 -0.128767 -0.155413 0.00790123 -0.134908 
-0.166687 0.00246286 -0.124859 -0.144335 0.00655117 -0.121721 -0.2339 0.00944053 -0.127795 
-0.220321 0.00232367 -0.124331 -0.176866 0.0100565 -0.122133 -0.184062 0.00290492 -0.118216 
-0.172802 0.00250578 -0.115527 -0.15621 0.00308893 -0.123375 -0.134221 0.00701075 -0.119099 
-0.219049 0.0101692 -0.118115 -0.229457 0.00520871 -0.119773 -0.199659 0.0107381 -0.192504 
-0.193352 0.00634957 -0.119619 -0.163999 0.00895335 -0.11604 -0.154004 0.00871852 -0.074189 
-0.210983 0.0100189 -0.112061 -0.22074 0.00265838 -0.11177 -0.201345 0.00741622 -0.113675 
-0.148069 0.0122664 -0.113303 -0.137617 0.00707344 -0.109559 -0.19064 0.00232249 -0.110245 
-0.158701 0.00686826 -0.107274 -0.230667 0.0024689 -0.110241 -0.170643 0.0105303 -0.108609 
-0.244852 0.00916484 -0.105365 -0.145312 0.0107744 -0.0291947 -0.180974 0.0093949 -0.11122 
-0.145885 0.0103619 -0.0191912 -0.152344 0.0140179 -0.104221 -0.136077 0.0112436 -0.0972817 
-0.236512 0.002436 -0.102154 -0.22584 0.00340692 -0.0988398 -0.216872 0.00792669 -0.101315 
-0.176594 0.0105037 -0.100549 -0.171463 0.010639 -0.0643721 -0.207398 0.00490485 -0.0978802 
-0.199626 0.00700017 -0.103817 -0.189838 0.00838852 -0.102195 -0.15826 0.00802891 -0.0970059 
-0.245055 0.00353477 -0.0971605 -0.149545 0.00805649 -0.0905009 -0.194436 0.0119422 -0.0396883 
-0.194355 0.0106901 -0.0931254 -0.18452 0.0133605 -0.0938973 -0.167578 0.0118402 -0.0961179 
-0.186893 0.0110597 -0.0820158 -0.14311 0.0098648 -0.132526 -0.236525 0.00244328 -0.0921236 
-0.224976 0.00783013 -0.0872416 -0.215378 0.00986785 -0.089153 -0.204556 0.0063089 -0.0869451 
-0.157743 0.00252871 -0.0882123 -0.138582 0.0105751 -0.0852268 -0.195055 0.00516768 -0.0809737 
-0.213131 0.00233866 -0.0796369 -0.167877 0.00491842 -0.0865898 -0.244792 0.00535434 -0.0873581 
-0.173561 0.00823532 -0.0787306 -0.236949 0.00248997 -0.0803177 -0.225223 0.00247261 -0.0721028 
-0.193487 0.0102099 -0.0714198 -0.182429 0.00243922 -0.0769238 -0.160465 0.0023736 -0.0783882 
-0.244491 0.00811792 -0.076568 -0.202753 0.00936275 -0.076054 -0.15049 0.00241632 -0.0810382 
-0.142409 0.00242469 -0.0747027 -0.133141 0.00599591 -0.074315 -0.236807 0.0109498 -0.0656369 
-0.215874 0.00746985 -0.0714873 -0.176045 0.00239821 -0.0687601 -0.16607 0.00233708 -0.0684147 
-0.223414 0.0142785 -0.0581513 -0.198248 0.00247239 -0.0635931 -0.186391 0.00245507 -0.0669059 
-0.145865 0.00353402 -0.0634604 -0.1334 0.00546508 -0.0637147 -0.130935 0.00971637 -0.0520227 
-0.21982 0.013713 -0.227993 -0.214537 0.00531792 -0.0618167 -0.153057 0.0121439 -0.154984 
-0.156217 0.00240243 -0.0668382 -0.244652 0.00769054 -0.0602756 -0.234793 0.00910683 -0.0555723 
-0.186547 0.00248762 -0.0568568 -0.174842 0.00490121 -0.0564481 -0.153937 0.00387407 -0.0572559 
-0.139138 0.0044878 -0.0555837 -0.240098 0.0112757 -0.136999 -0.20606 0.0027271 -0.0571605 
-0.163876 0.00591519 -0.0583376 -0.225998 0.0114085 -0.104832 -0.226043 0.00931562 -0.0493353 
-0.147247 0.00660556 -0.0499293 -0.244538 0.0123866 -0.0509931 -0.214035 0.00647396 -0.0502914 
-0.196245 0.00259897 -0.0537819 -0.235182 0.0110499 -0.0449606 -0.200623 0.00246387 -0.0398386 
-0.179081 0.00242285 -0.0410928 -0.172612 0.0072532 -0.0469249 -0.159208 0.00970634 -0.0441952 
-0.134363 0.00241004 -0.0462288 -0.156824 0.0110112 -0.169096 -0.188939 0.00238586 -0.0427692 
-0.130083 0.00811713 -0.1524 -0.1363 0.0128283 -0.216273 -0.139732 0.0104422 -0.0435917 
-0.24456 0.00680535 -0.0396963 -0.228567 0.00529752 -0.0398647 -0.208732 0.00800859 -0.0419824 
-0.166384 0.00549363 -0.0373033 -0.150637 0.01444 -0.0368838 -0.235684 0.01407 -0.0354399 
-0.244907 0.00778278 -0.0296321 -0.218504 0.00496728 -0.0381234 -0.196352 0.00326774 -0.0307709 
-0.158739 0.00759779 -0.0303323 -0.142647 0.00252301 -0.0349332 -0.202567 0.00738445 -0.153521 
-0.180396 0.00981702 -0.159624 -0.209789 0.0132527 -0.157417 -0.236269 0.0101422 -0.0249742 
-0.226555 0.00559959 -0.0290031 -0.210587 0.00366262 -0.0308841 -0.172429 0.00784013 -0.0292993 
-0.134255 0.00242332 -0.0287679 -0.175262 0.0129449 -0.00027216 -0.21405 0.0129477 -0.0335364 
-0.202811 0.00917324 -0.0234155 -0.244957 0.0125427 -0.00247525 -0.136682 0.00245157 -0.00519188 
-0.168929 0.0129158 -0.0209858 -0.222923 0.00709317 -0.0192654 -0.211926 0.0048501 -0.0210245 
-0.193168 0.00482496 -0.017515 -0.148655 0.00244974 -0.0246705 -0.167749 0.00346406 -0.00132787 
-0.136536 0.0024621 -0.0190091 -0.24499 0.01253 -0.0205266 -0.226644 0.00249699 -0.0111285 
-0.201989 0.00576121 -0.0124382 -0.177114 0.00590562 -0.0166978 -0.145126 0.00239661 -0.013298 
-0.143501 0.0126906 -0.209334 -0.233508 0.00890022 -0.0144157 -0.190569 0.0126954 -0.011926 
-0.163811 0.00945867 -0.0112639 -0.129833 0.0056793 -0.0117141 -0.237428 0.00245994 -0.00731627 
-0.154353 0.00535516 -0.0106845 -0.219207 0.00950355 -0.010074 -0.181353 0.0118717 -0.00813352 
-0.221987 0.00392467 -0.00158354 -0.208407 0.0065523 -0.00481747 -0.190018 0.0093662 -0.00192332 
-0.242514 0.0124488 -0.192393 -0.164781 0.0132484 -0.140256 -0.223174 0.011387 -0.131445 
-0.210784 0.0132649 -0.22255 -0.220769 0.014168 -0.080587 -0.21619 0.0144979 -0.0185107 
-0.230323 0.0124451 -0.138417 -0.237263 0.0132464 -0.110384 -0.233012 0.0134748 -0.0853681 
-0.161257 0.0129284 -0.0682838 -0.15295 0.0136424 -0.205345 -0.227896 0.0135084 -0.114418 
-0.185016 0.0144335 -0.0372335 -0.243485 0.0140434 -0.230603 -0.218834 0.0148427 -0.180321 
[...]
POINT_DATA 4294
FIELD FieldData 3
id 1 4294 int
1792 2178 3489 3066 917 3483 3891 2693 1026 
1786 3036 1313 3473 3493 920 453 3543 12 
2642 487 1366 474 5 2214 14 1849 3029 
3992 3544 3053 3927 475 1325 2271 3950 468 
1354 2217 3922 464 3460 922 1364 2606 538 
54 877 3510 1317 897 445 1363 1353 451 
3898 7 3055 3461 1341 3077 477 1778 3484 
2607 1761 1752 1757 486 961 489 925 492 
3895 2201 907 1350 3492 918 4060 3624 1797 
3076 1420 1323 2634 3495 47 466 3490 15 
531 1312 2632 1782 2731 53 597 3465 2621 
1467 1320 16 40 3511 3471 2197 924 41 
3545 1411 3074 1837 2177 1846 3171 2623 3925 
181 612 2625 36 2198 63 1348 1889 1339 
3059 1762 3061 1310 3893 2631 1789 4047 46 
1801 910 2207 1418 3487 1775 1884 881 909 
1781 904 1756 3472 2641 3504 915 1838 3057 
2629 590 2764 3485 2644 13 3896 1349 1924 
2208 3923 37 488 3163 1798 2636 1759 58 
1355 3470 49 1356 10 2648 3071 1342 2646 
2180 176 3 1346 3482 3196 2200 1856 1340 
1406 3026 2184 3630 614 3943 1316 872 3944 
868 2328 1362 1753 905 1361 3115 1352 1785 
1787 2698 1852 2211 1795 3079 1844 1923 2598 
2599 2755 1314 3503 900 3932 2694 3608 1006 
3034 11 1322 1005 473 1343 2183 1784 3607 
3062 2222 479 3611 1357 3050 599 3463 3994 
452 2600 3935 873 2326 1905 2306 491 2199 
1012 3494 594 3032 3940 1360 3069 2223 34 
874 1311 3905 1473 3058 1338 3189 1793 1347 
2181 490 1765 2213 29 3929 51 2205 2321 
3934 1375 3951 485 2630 218 4069 2635 3054 
2605 510 198 2216 470 22 169 3185 1351 
4049 889 44 3467 3104 50 2628 3937 1751 
1783 3028 2626 2218 898 483 3120 3946 3938 
2756 1779 3037 2601 3049 1044 3902 2681 38 
77 1830 2657 2231 885 2664 1367 1318 883 
1776 953 1836 209 1499 2690 2659 1397 3521 
3108 1059 4025 2650 4026 3202 878 2633 1396 
625 3958 74 521 2655 1359 92 17 567 
519 3236 1328 30 2236 2617 88 1811 938 
4009 2252 3477 2192 3044 498 2609 3978 3145 
3635 3233 449 890 2669 882 1069 1390 3086 
3965 2249 3971 4104 1054 1819 892 2288 2203 
1368 2235 136 1823 933 1813 3512 2225 2379 
2783 4087 1427 3094 3040 3041 1822 523 3570 
3571 1332 1943 86 1820 23 1833 1501 80 
1770 3980 3517 3975 3088 1424 886 3228 2663 
3666 1824 3099 1388 3979 496 93 930 1763 
559 2652 653 21 2791 2356 3969 2672 84 
1381 947 643 461 4017 1862 3203 1387 3907 
2654 3110 3914 4024 72 18 1807 1373 501 
1806 2708 1828 2191 1815 2615 3474 1376 2242 
2241 1934 1826 3962 3529 2619 1771 27 3534 
1963 1063 514 495 1808 3092 511 2656 2665 
20 3916 463 1334 3039 3981 937 4091 3532 
71 1377 1383 3083 78 2676 1336 929 3533 
2186 2188 3475 2768 3082 950 990 459 3972 
2769 2229 3478 1374 3960 3524 2610 895 500 
3102 3098 1423 32 3952 893 2190 189 25 
1821 1817 1959 1327 3080 1764 1085 1768 3918 
949 894 76 1391 1773 95 2189 2612 2674 
3540 1518 3097 3045 1395 1372 3967 3959 2243 
1335 3090 1816 506 934 3964 2614 1369 1930 
1766 2712 945 457 517 2675 193 992 3976 
884 3966 2679 85 4097 94 3953 1772 1329 
2187 507 932 3107 505 75 3528 1810 1392 
1062 2668 3538 90 2608 927 4111 2616 28 
3542 2678 1825 3153 891 516 3955 518 3089 
2363 951 3520 3144 3525 499 3103 3515 1378 
3558 4082 1384 944 3046 2228 503 2204 1809 
3526 3476 3920 2299 948 4083 1394 3101 1769 
81 3897 3915 3063 469 3500 4004 870 2209 
3187 2210 3933 1755 3065 1904 2604 1031 2640 
482 484 3941 1365 912 3930 1319 3035 3056 
3052 3947 879 1774 2176 3025 2182 3939 2195 
2699 1321 2325 901 919 911 1413 3038 1337 
2256 3116 1777 3033 2624 102 3509 1800 3070 
2212 3068 871 2353 1443 3466 546 2215 62 
471 3598 3030 2645 876 3486 480 2221 1758 
3491 481 869 55 3926 465 144 448 89 
4034 39 3928 3931 462 926 96 1796 2220 
3469 906 3462 2620 3078 1799 1416 3894 970 
3497 3182 99 2314 576 2622 3945 2602 450 
3067 467 2185 1 3609 1315 3498 1915 602 
960 1358 45 591 9 3592 913 59 2639 
3900 921 1309 35 3060 1898 3508 880 1032 
1408 3186 1019 1345 3459 2647 3064 902 1802 
446 1788 4 2643 3502 1401 1479 3464 478 
2219 2196 52 3506 586 3468 42 581 2206 
2753 3924 3982 476 899 3892 493 1371 3024 
2649 3903 3904 444 8 1749 2627 3027 2342 
1794 2638 2202 1791 2597 3899 3112 509 504 
3091 522 1834 2 1895 91 3910 3213 935 
916 2637 19 1393 3047 2239 206 1333 3109 
3229 1519 1874 3963 4076 2230 3105 1876 3968 
4094 67 4074 4013 43 2667 211 33 1053 
2804 3513 64 3537 3527 4080 26 931 4103 
943 3081 2250 1767 2653 2193 3541 3917 1827 
2658 3961 2662 3480 512 3936 3093 3095 2661 
896 4106 549 941 2251 70 3518 952 936 
1330 2660 3106 3479 1511 2374 68 2666 3643 
2253 4089 923 888 3536 3954 66 1389 1831 
3578 3522 887 1814 520 2713 2244 3973 2383 
1829 2233 628 2237 3539 1061 224 2677 515 
3087 1385 3970 548 126 2248 3912 3957 3569 
513 984 1331 217 1805 2651 216 3530 460 
2240 3043 3949 2671 3100 1370 24 956 3531 
3111 456 3048 1382 2254 3523 79 87 1812 
497 3031 2234 2226 494 1386 3516 2613 2227 
954 458 3230 3921 2673 2247 940 3911 199 
939 2618 3906 69 60 3919 2611 2238 2670 
1326 2224 1060 3535 3141 3084 2232 3085 4018 
508 2179 942 2246 3126 2759 48 1455 3599 
2317 2766 535 1803 4033 525 3179 1461 166 
3622 3631 1841 2754 171 3133 1848 1023 2316 
1854 1882 3564 149 3164 2750 2329 2273 978 
2042 2822 61 3600 1855 1750 2333 160 2743 
1028 2324 1035 1040 1486 3184 1472 1842 152 
601 1447 1448 574 2728 3990 1011 613 1020 
3547 1410 112 4058 1917 3988 3550 609 1754 
3556 3119 2270 1845 103 3180 1402 3554 3761 
979 1903 4051 2331 1445 174 454 1037 150 
3606 2730 3560 2603 1015 2311 4001 2700 3610 
584 2736 2738 179 1592 2264 4063 975 2697 
652 111 4036 447 1412 1899 4187 4065 3616 
2462 962 4068 1468 1887 2687 4055 4030 973 
4000 1890 598 2733 3546 600 3174 1460 579 
3728 4172 2749 4037 583 4115 588 4067 4031 
528 2265 572 156 183 1536 3987 959 3113 
3129 4003 3165 1851 2343 2315 4171 1483 161 
3201 545 4054 2761 2757 524 109 3997 165 
3134 2307 1456 1014 2691 1415 3591 527 4043 
575 2740 2274 2269 530 3615 2387 2320 4061 
1888 3199 2746 116 3121 595 1760 592 3122 
596 4052 2268 3191 2339 1034 1041 2695 2263 
4057 2310 3593 3993 1976 2696 544 1482 108 
115 2726 1022 2684 346 3948 3198 3555 1883 
539 580 188 547 1478 2748 1010 3166 4038 
1459 4048 170 57 1885 154 4198 1036 2741 
2341 3603 2861 3128 3983 1843 533 162 1018 
4045 903 969 966 1004 98 875 3985 967 
159 3170 1485 1900 146 1039 4062 2260 4046 
3995 3605 976 3613 2261 1914 3562 3561 3590 
3618 3549 1893 1042 1450 1840 106 1444 1853 
1043 3625 577 1414 1417 2276 3205 2334 3553 
3193 2257 3629 1464 3595 1857 110 157 3559 
1637 2255 1419 184 472 1454 2351 542 2758 
145 1399 3688 2922 3160 4029 3168 1400 2009 
2305 1521 2258 113 2727 3565 1471 2322 4007 
1462 1948 3075 151 1407 1009 2308 107 2267 
3996 2760 4005 1324 1918 3172 308 1906 4064 
3178 1902 1030 1344 158 526 3594 604 2277 
1913 1922 1919 2259 1892 2301 2312 1058 1988 
3181 3671 1937 2688 2266 118 3223 1911 645 
203 3192 82 2709 654 4035 1440 1188 2354 
1435 4006 1512 1025 3146 1865 2706 3157 2799 
123 120 4110 220 4071 2278 3194 122 1457 
1379 129 1878 141 1048 3158 2742 1086 194 
4077 1938 4014 3650 2287 980 1942 100 192 
321 1194 630 2792 4109 635 2786 1944 2503 
1528 620 3222 3791 4079 4212 3137 1074 3138 
153 641 1872 655 2194 1951 3573 1926 4090 
2793 2425 3235 3218 2290 3221 4020 3574 3217 
2298 552 3647 1946 1084 2352 1957 1990 757 
3148 3913 1437 138 315 2376 2798 558 3778 
3673 3208 1509 3237 3668 3242 1441 3646 1067 
3649 3587 1931 1057 1191 205 2703 187 125 
1526 616 2776 4230 4108 2785 1426 2507 4010 
210 1558 2369 134 1515 1505 1873 127 3645 
135 570 3589 987 561 2784 3637 2362 1431 
1935 2806 3773 551 3585 4027 2415 3656 640 
1087 1941 4081 1859 2777 2773 3653 2361 1928 
993 679 3908 221 4098 1429 629 651 1861 
208 1438 2300 563 2716 139 981 1000 1494 
997 2720 2779 633 1442 4112 1879 140 2384 
2710 4072 647 3644 2358 1380 3662 3215 1932 
1064 617 4096 4084 994 3588 4093 202 568 
3214 2297 3234 3977 1962 2347 4092 2719 619 
3634 3660 3481 1055 1436 564 3659 955 3576 
1520 219 3575 1002 31 3149 1954 2357 2245 
204 1514 4088 1863 212 1513 4085 2718 2801 
1001 1073 2778 1490 1434 2279 3651 1077 637 
1066 1508 1498 1953 556 4153 2371 1433 2809 
3586 644 1496 2771 1527 3136 1927 207 985 
225 2714 3670 143 3364 1071 2707 2386 131 
1079 1056 1958 986 615 4075 3156 1870 1960 
3632 631 1956 197 201 3658 3584 3225 4100 
1488 3577 1049 1489 998 1869 2795 3204 1877 
2705 554 3633 562 1516 649 1493 4023 1422 
1491 2501 2711 132 1790 560 4107 1075 3224 
3636 3648 1947 1565 2782 2319 1082 2802 4073 
2794 3154 185 1965 3240 3211 2701 3552 589 
3991 3620 3162 2752 1908 965 1894 1465 1839 
2767 4040 175 908 2683 1907 585 3169 3557 
1017 3161 1477 3627 1451 532 180 3942 2464 
3183 3604 608 2323 1016 3190 971 142 977 
3619 1409 1921 1912 914 3173 607 2744 295 
2394 2302 573 3596 101 541 3612 3022 117 
1896 1027 2729 3998 3125 6 606 1920 178 
2340 3195 4041 2327 2732 4066 4039 186 2337 
1858 4059 553 3496 114 3130 172 537 578 
636 1403 4002 1971 1897 1579 963 593 4042 
4053 1038 3127 177 1476 2338 1163 968 2408 
2332 1916 1891 2309 3760 3690 623 529 1484 
3984 182 1003 105 2040 1480 4050 222 1024 
958 1901 2272 3131 155 1463 2803 3621 2686 
3200 1850 2725 1452 603 540 3124 2702 3209 
3246 3692 168 1466 147 274 1029 1847 3548 
1446 2692 4056 2762 543 1430 3159 3614 2344 
3628 3623 3197 2275 972 587 1013 3665 2739 
4174 3175 1495 3265 3177 1100 3551 3167 1117 
3617 639 957 167 1405 2763 745 2682 163 
1886 3051 2734 2336 1867 2295 4102 1453 3716 
1510 3654 2367 3642 2349 2294 3567 1033 455 
928 3212 4105 3147 3220 195 3188 3519 1080 
1052 1659 618 634 3140 1487 2723 1832 130 
2368 215 2781 1070 621 1955 1131 3661 65 
982 3672 4011 4015 983 2056 2366 228 1881 
213 196 1076 3566 3206 3231 2280 3152 1081 
3639 2717 2385 1500 191 3227 3207 627 3219 
1072 3241 632 3657 1936 2721 565 128 1804 
2293 557 751 4028 2292 200 1933 2805 2724 
3096 566 4078 1046 1123 502 257 2296 3568 
642 1949 2355 1432 2505 1880 1871 1497 1051 
2722 991 3655 2789 2359 1196 3581 1065 1961 
2345 3582 1047 2373 1573 2364 121 137 190 
1523 2796 648 3663 2774 946 2348 227 3142 
124 3583 2772 1868 1492 656 550 1866 2285 
2807 3708 2350 988 1964 3143 3667 1045 3155 
3238 638 1211 2370 2790 3669 2283 1502 3243 
2800 2378 3909 2916 626 1524 2808 4012 1522 
1875 2291 3956 996 1475 2780 4008 1078 1506 
3579 569 83 2286 229 3216 1925 2282 3135 
3139 1966 3641 571 2284 1504 1470 1449 1950 
2704 214 1945 1428 964 4192 3755 2453 710 
310 2011 285 1174 1981 233 3317 1995 680 
1588 4186 3294 1093 1835 1109 282 3252 610 
1469 2872 2896 1989 247 245 275 97 668 
2884 2044 1577 1103 3601 1581 1147 2012 3689 
1167 2046 735 3986 2397 3846 2827 3821 729 
1169 2814 1980 2403 2824 703 2539 667 1021 
3261 2024 714 2680 4158 2019 1148 2448 1610 
4197 2889 2887 4188 3251 3291 3262 2303 3306 
3314 1140 2816 4162 2033 3290 4190 4173 2818 
1929 2812 2819 1007 1542 2866 534 663 3118 
286 731 3989 660 3304 2434 281 1603 2014 
298 2400 738 3721 670 1531 1972 2038 1982 
4120 739 2894 1099 665 4116 3679 1530 2873 
1585 4122 2468 1138 720 2820 297 2015 3293 
4117 3258 289 232 1595 4194 3315 240 2870 
3263 3313 3726 1158 4169 3697 3742 2829 2456 
3327 675 715 1598 1591 2459 291 4130 3257 
3245 3695 3312 4168 238 2735 1599 3757 1107 
1613 3301 1149 3330 1162 2446 4182 4129 1593 
4181 2393 3751 1909 2465 305 740 706 2452 
2443 280 4161 3310 3745 2470 3744 733 1578 
2407 3743 3694 273 732 293 3747 3752 1608 
3681 3309 239 3683 1605 2440 2404 2813 727 
3693 1615 4118 1590 1583 2330 716 246 3295 
2028 3759 1641 661 304 2262 1008 4183 2460 
314 3273 2886 1975 2021 1551 1586 1173 1654 
283 1987 1983 4159 3674 1096 3682 2388 4184 
1105 1097 3311 677 3307 726 2023 1154 2027 
536 235 1984 3281 2018 2469 3296 307 2876 
2860 338 4176 164 3248 3325 672 1970 1090 
1161 2831 3255 2883 3722 1607 3329 119 1165 
4127 2449 2041 2890 3763 2444 4296 1098 1143 
2045 3691 1552 2005 3324 2891 3260 1534 3756 
4119 3733 3774 294 2008 1101 250 1539 2022 
296 1141 337 2892 3723 300 3680 2897 4218 
1617 236 3256 2017 2817 2043 2039 2035 278 
1657 3254 2441 2473 1458 279 2389 2466 1110 
3250 2405 1275 1604 4165 311 737 3675 707 
241 231 1535 3725 719 2398 2874 251 3244 
2318 1146 4167 3709 4113 4134 1584 1102 3319 
1088 1142 2888 1992 223 3336 1197 2492 2064 
1193 2504 2065 2079 1092 2413 999 3351 691 
3333 2382 2054 582 1136 4170 2905 2855 4231 
3999 1991 348 3798 2087 259 3278 2419 3702 
773 1647 2049 1619 2854 3715 3768 4228 2914 
2852 4149 1113 332 1649 2066 1556 1636 3720 
267 4150 319 2479 255 261 1643 1621 1213 
2882 687 1864 2903 3707 4152 1119 3275 3795 
1939 3363 325 765 3280 1563 2060 253 2939 
2426 3784 342 4148 1644 4016 1642 646 776 
4138 4147 4234 3797 1068 327 3352 686 3770 
3703 1195 2154 323 2901 2839 2001 4216 2844 
2481 756 1425 689 3775 624 681 2491 2497 
1124 1128 2899 1207 1940 2841 2933 697 2918 
1179 4021 1201 693 3341 3343 4156 688 2420 
3226 335 758 1994 2484 3783 3781 781 3710 
1650 2930 1567 443 762 2482 3239 3271 4223 
2788 2509 2917 2833 4233 2510 320 3771 2416 
2069 1198 2051 3449 1653 4224 1651 263 4086 
2086 2937 1214 1625 1574 1212 847 329 3712 
2074 2787 4221 1190 1176 1674 3788 3799 748 
1178 1183 2913 2498 2429 779 1215 747 3652 
2428 1628 2424 3360 3640 4210 4236 3362 3804 
3349 333 1568 1122 690 3803 2904 3713 3283 
768 352 775 347 3274 4206 4019 3338 1645 
2489 334 2511 1203 749 1421 1997 2381 2496 
692 1177 1572 3785 345 1560 4151 1182 989 
1184 2932 328 1631 3769 1185 269 2059 4325 
2928 355 2085 1629 4207 771 3796 2410 1952 
2853 2843 3819 2846 3288 678 3718 4211 3704 
1633 2770 1503 694 1120 258 2431 1566 3337 
2845 2375 2078 759 4154 2053 341 742 4155 
2906 2488 3764 1209 1050 1630 3276 698 344 
1626 1559 1181 3365 1200 2411 3664 4226 699 
2589 3388 774 746 3272 2377 4217 1115 3700 
4229 4143 3282 2512 1632 336 3361 2061 3286 
1635 683 3828 4136 2082 3332 1682 1999 1571 
555 316 4213 3801 3151 2427 1587 354 2506 
753 331 2062 343 4203 2281 2500 1623 2919 
3871 2487 3790 303 339 777 2494 3270 271 
2076 755 3792 2926 974 4191 3316 2010 4196 
2871 3292 674 2810 1910 725 1481 711 2335 
2313 705 2747 2451 3746 3321 3597 2013 248 
4175 1108 1164 2875 2879 4287 1166 3249 4180 
4164 306 4141 3684 3729 2432 730 709 4044 
4070 3334 1145 249 3732 1104 3302 1986 3323 
2037 1548 3413 1977 2007 2895 2862 2396 3687 
1398 4166 3731 2564 3322 277 3300 1532 3602 
2867 662 2859 2973 2034 3328 3762 1547 3132 
4121 1404 4126 3727 3678 2828 4032 2821 3730 
1546 2025 3247 3677 1582 2765 2026 3298 722 
2036 1969 3318 4177 2445 3754 1168 3740 2084 
173 1134 2442 1474 2304 2745 2880 1089 1596 
2457 265 3423 1589 2878 704 2863 824 734 
1094 2689 1714 3734 713 3753 669 2390 252 
1609 1538 2823 821 1150 287 3308 3686 2080 
301 671 3758 605 3676 1157 2472 2433 724 
1545 1529 2826 2877 2435 2071 1160 2467 611 
2685 736 2991 2751 3738 1144 104 2447 3259 
1533 148 3737 4185 2811 1540 2737 243 3340 
723 1612 3114 1156 3176 4131 2868 664 2881 
2436 1139 3320 3117 1968 4189 290 1135 728 
309 2402 4145 2815 3563 1133 1974 3750 4132 
659 1170 3626 4179 244 2020 3303 299 2885 
4125 4095 1095 1208 2016 3701 1561 1640 2850 
3232 2938 1294 4232 3572 2925 4101 1562 1159 
712 2832 1083 2289 3287 1517 761 4123 2715 
2900 1205 2000 1210 2418 2910 2454 3335 4205 
1114 2360 4099 242 3685 2775 1648 3331 2474 
3267 2164 2535 133 1202 4146 2372 3150 2068 
428 2934 2088 2050 2915 2936 1646 2856 3353 
650 330 2929 3277 744 1300 695 1199 2847 
1192 2508 1993 4225 743 3345 4237 1130 3354 
340 995 2478 4215 3370 3638 1525 2935 2514 
2477 4139 2842 1634 3719 3705 4227 849 1206 
3279 2797 2003 272 3358 2002 3786 318 2075 
2421 270 767 1638 2380 1132 3706 3714 2911 
2837 350 3711 4199 2422 2485 2835 2067 1129 
3366 1967 1656 2463 4222 2927 4200 3369 3357 
2907 766 763 2513 1627 324 1575 1620 760 
2414 3346 2052 254 3580 322 622 1860 226 
3350 264 696 752 4202 1439 2838 1121 1507 
3356 4022 2423 4137 2083 4239 3284 2346 2502 
764 778 266 2365 4238 3359 3794 1655 1112 
3879 2865 4235 1996 1118 268 3342 1564 3371 
372 2455 2908 326 2923 3772 684 2006 317 
682 1661 4294 1597 2857 394 2970 1267 4178 
1667 4282 2562 4253 3424 1985 1695 2522 2948 
3289 784 2117 276 4277 2951 4247 4283 791 
1660 1266 3881 2898 4300 4274 836 1706 3839 
3809 1544 367 3854 1172 2551 2115 2139 1713 
2950 3735 3374 831 2543 1716 700 1543 3842 
1152 2516 2047 2138 1541 3832 1268 2123 3850 
788 2126 3829 1550 1688 833 2548 1712 3845 
2391 3810 3426 2122 2523 2983 4293 2587 1219 
2542 1255 830 2560 2132 396 814 368 3382 
1696 4163 1106 2401 786 3421 1256 702 302 
237 4273 4292 1271 2988 3380 2145 1594 1227 
3422 363 811 2553 1978 2547 2545 829 400 
4276 2893 807 2093 718 2142 2526 2540 2864 
3253 1226 3844 826 1257 832 3749 2944 389 
1580 406 1715 1693 3378 4302 3297 313 390 
3408 1705 3833 1218 284 2546 2527 2098 2524 
3405 2942 2521 825 1979 1600 2130 3414 1669 
1252 2118 4244 4297 2125 3384 408 3389 4254 
2137 2439 1662 2969 2471 3381 2095 4248 1277 
2966 1253 2830 1710 2091 407 2990 2030 4255 
4281 3807 782 2136 2962 2121 657 1711 2406 
2941 1171 2558 2537 1272 2131 3406 1278 2987 
234 2518 388 3847 393 4295 3417 3416 1601 
409 3266 2982 404 1251 1672 2140 405 806 
1702 4193 827 3835 1700 717 1699 809 828 
4298 387 4291 2519 3840 2559 1694 2531 1260 
4124 2450 820 2517 785 2120 1248 2437 1264 
3851 3375 1549 2557 783 360 2967 1249 3376 
1228 673 3403 397 3808 4285 1254 666 838 
288 366 1670 3425 1692 2399 4242 410 2100 
2980 2141 2869 3409 1263 4243 1246 4272 365 
1091 2143 1703 2520 3402 2515 1250 2984 1663 
2989 3875 2949 658 3003 1221 2412 3264 1709 
792 1690 3418 2985 1230 701 2114 2565 369 
2031 4280 3837 3841 4246 1671 1137 1673 4261 
1697 3404 2149 2561 3853 4278 816 2947 1701 
1691 2981 2116 819 864 2964 3379 1739 2902 
803 4328 1687 4286 795 375 1274 4290 2958 
862 3848 3443 2124 1678 4324 385 1731 1685 
4312 2458 1237 3355 4327 1259 797 4307 3006 
3410 4303 3815 4264 676 1243 2528 1125 3021 
4266 2169 1555 1303 837 1622 1293 2530 3890 
1238 850 3407 2994 4257 1720 3874 848 855 
3699 3789 1681 1683 1126 3451 413 3777 1204 
349 3884 3458 370 435 2106 2572 3454 2529 
2995 859 1236 4326 2834 3800 793 2579 4268 
794 2173 1677 3429 804 4320 2151 373 2480 
2101 2998 3826 2113 427 377 1742 3867 380 
4332 2158 1680 4316 1286 374 1233 3014 3437 
1242 1304 2004 3822 2582 861 3016 2070 1187 
3717 3446 1679 1734 2588 1280 2162 853 1231 
1216 419 3864 430 3020 3396 1241 1291 420 
2576 416 2417 2534 2172 3787 2105 415 2148 
3877 2924 3776 3887 4305 376 754 1748 1301 
863 3015 2161 4201 442 2575 2569 3002 3438 
2476 434 4262 2111 3872 2146 2089 769 2430 
4220 4208 1743 3012 4323 802 865 1281 1747 
3825 379 436 2999 1569 3005 4313 685 429 
1658 1296 1721 1738 3876 4322 3698 2495 1282 
1298 1733 1239 1289 2592 2159 3780 3444 2475 
378 433 1232 2580 3007 844 2153 4204 3339 
2571 856 437 1652 1111 2567 3394 260 1624 
1744 425 4258 2174 1730 4318 3869 1737 3434 
2147 1729 3455 1727 1299 3878 2959 3880 2992 
371 3782 3000 3765 1186 3010 2594 418 800 
3433 2157 3866 3817 4157 2586 3453 3457 851 
2593 2993 2568 2057 770 1244 3450 3392 2170 
3391 3367 858 2156 3888 3802 4330 1735 1676 
1180 2103 426 2591 3816 3011 2595 2165 3882 
2849 2171 3269 432 2160 3431 417 2566 1726 
2483 1554 2921 860 262 1618 421 1306 3387 
2574 3344 1285 3873 2107 3440 2102 1305 2175 
1234 3386 2931 2150 1288 4265 2581 4309 4270 
1576 845 810 2552 2048 4279 1717 796 3412 
401 3377 2945 2135 815 3739 3806 4133 2956 
854 1153 1265 2134 2119 2409 1269 3299 2144 
4135 1245 2128 4251 4128 2099 2986 2954 357 
808 3724 1666 398 4160 411 4269 721 2963 
2094 364 1276 1973 3843 4301 2953 1229 358 
813 2090 4250 4195 2029 1222 2556 3856 2952 
3347 3857 817 4289 4245 3305 384 1224 3849 
3811 3859 2438 3834 3748 2971 2968 1611 2032 
292 3858 3372 361 392 4249 3415 3860 3852 
2127 386 3383 1258 1225 4284 3326 2525 4299 
4288 2974 1155 391 2544 1708 3838 2392 4241 
2977 1689 2979 4240 381 1217 1664 402 1668 
787 1707 2096 1602 789 2996 2946 2825 356 
1270 3812 1261 3420 2940 1665 3813 2550 3400 
2975 2563 834 2943 4252 2129 1606 790 3018 
3865 2978 4308 1698 412 1718 3831 3736 2461 
812 2092 3855 1175 2858 1220 2133 1704 1262 
403 395 2972 2541 708 4275 822 362 3741 
3427 3373 835 3428 3399 1616 1537 2097 230 