# vtk DataFile Version 4.0
Generated by LIGGGHTS
ASCII
DATASET POLYDATA
POINTS 207 float
-0.241176 0.00529516 -0.244945 -0.220108 0.00536856 -0.244421 -0.201471 0.00533312 -0.244634 
-0.182629 0.00531195 -0.243055 -0.244756 0.00536441 -0.235399 -0.230932 0.00531728 -0.237914 
-0.210683 0.00533935 -0.240714 -0.192336 0.0053304 -0.240566 -0.168666 0.00529131 -0.241822 
-0.169941 0.0053604 -0.230929 -0.236205 0.00533624 -0.228012 -0.181595 0.0053174 -0.227377 
-0.244991 0.00497648 -0.22286 -0.223566 0.00534133 -0.2175 -0.245001 0.00518715 -0.207783 
-0.234725 0.00531088 -0.215714 -0.197364 0.00536725 -0.215475 -0.156238 0.0053637 -0.215104 
-0.227782 0.00533774 -0.207979 -0.217619 0.0053166 -0.207282 -0.15987 0.00513365 -0.200812 
-0.236834 0.00532557 -0.202014 -0.179571 0.0053148 -0.201694 -0.218064 0.00533871 -0.197184 
-0.170511 0.00530848 -0.19429 -0.234346 0.00535251 -0.192229 -0.2255 0.00533216 -0.18734 
-0.206288 0.00528372 -0.189998 -0.192924 0.00528635 -0.19239 -0.182696 0.0053555 -0.191808 
-0.24459 0.00531135 -0.182158 -0.194138 0.00531108 -0.182103 -0.157553 0.00531032 -0.189141 
-0.214742 0.00531592 -0.177109 -0.204369 0.00529114 -0.179761 -0.172544 0.00529859 -0.17481 
-0.244896 0.00531245 -0.162796 -0.208034 0.00536553 -0.162868 -0.165503 0.00529242 -0.166918 
-0.241623 0.00536289 -0.0657762 -0.182267 0.00530813 -0.15799 -0.169682 0.00530207 -0.157721 
-0.242896 0.00528603 -0.150491 -0.233091 0.00531667 -0.152462 -0.223001 0.00530385 -0.152346 
-0.160042 0.00537504 -0.151464 -0.216641 0.00536573 -0.144475 -0.197874 0.00536283 -0.144513 
-0.187837 0.00531103 -0.146767 -0.169943 0.00537438 -0.147361 -0.245001 0.00536855 -0.137895 
-0.227463 0.00535808 -0.139926 -0.205544 0.00535711 -0.138098 -0.214553 0.00529408 -0.133699 
-0.163297 0.00535551 -0.133383 -0.236289 0.00536894 -0.130705 -0.225707 0.00531242 -0.129475 
-0.198143 0.00529613 -0.130619 -0.188325 0.00531098 -0.12574 -0.24499 0.00531853 -0.125679 
-0.215073 0.0053555 -0.123525 -0.177267 0.00531424 -0.120919 -0.156819 0.00536667 -0.125625 
-0.244994 0.0053389 -0.115642 -0.231538 0.00531155 -0.117814 -0.221713 0.00533898 -0.115927 
-0.167395 0.00538918 -0.119328 -0.193856 0.00531225 -0.111962 -0.173255 0.00534476 -0.111222 
-0.22922 0.00528975 -0.102774 -0.206501 0.00533908 -0.103399 -0.181928 0.0052922 -0.106124 
-0.158498 0.00531075 -0.108312 -0.217009 0.0053388 -0.0996924 -0.174812 0.00531081 -0.0971149 
-0.165798 0.00533638 -0.101441 -0.245 0.0053665 -0.0945141 -0.213873 0.00534133 -0.0831442 
-0.201943 0.00537802 -0.0815947 -0.234175 0.00529667 -0.0887134 -0.216478 0.00528793 -0.0717427 
-0.184073 0.00535382 -0.0735288 -0.245 0.00529207 -0.080105 -0.207558 0.00531164 -0.0671801 
-0.244977 0.00533906 0.00426594 -0.188909 0.00528361 0.00161733 -0.245 0.00534299 0.0447745 
-0.170932 0.00537344 0.0759667 -0.245 0.00531588 0.208252 -0.241133 0.00535835 0.218713 
-0.213181 0.00536824 0.214369 -0.229805 0.00531479 0.213372 -0.245002 0.00539174 0.228093 
-0.196432 0.00531075 0.232859 -0.174075 0.00531073 0.237247 -0.244999 0.00531413 0.242823 
-0.231103 0.00530637 0.245 -0.210886 0.00533999 0.240965 -0.145074 0.00531728 -0.244991 
-0.135074 0.00529433 -0.245 -0.124648 0.00535124 -0.244728 -0.0709318 0.00529525 -0.245 
-0.0957205 0.00530226 -0.240284 -0.132874 0.00536965 -0.233312 -0.114609 0.00533148 -0.229736 
-0.0743356 0.00532069 -0.233521 -0.14115 0.00530368 -0.227681 -0.147162 0.00529104 -0.219465 
-0.0921199 0.00529324 -0.212637 -0.105686 0.0053231 -0.200541 -0.15045 0.00500782 -0.19679 
-0.114938 0.00536239 -0.194601 -0.0917977 0.00536625 -0.195471 -0.143763 0.00533581 -0.187727 
-0.0806081 0.00537966 -0.18516 -0.0739611 0.00532447 -0.174523 -0.101882 0.00533364 -0.172266 
-0.128817 0.00535234 -0.163835 -0.0937962 0.00534999 -0.16637 -0.104066 0.00536412 -0.162506 
-0.126474 0.00536411 -0.151875 -0.103462 0.00531209 -0.151327 -0.151968 0.00531173 -0.134387 
-0.0968209 0.00529188 -0.127854 -0.0769897 0.00535554 -0.131136 -0.133321 0.00536093 -0.125091 
-0.152197 0.00531972 -0.116485 -0.133438 0.00533281 -0.115057 -0.0823394 0.00533918 -0.1162 
-0.140631 0.00528983 -0.108077 -0.0722106 0.00530742 -0.0993464 -0.150815 0.0053326 -0.0788094 
-0.135486 0.00536547 -0.0975065 -0.111323 0.00531938 -0.0776531 -0.0907748 0.0053121 -0.0643278 
-0.091981 0.00528745 -0.0467771 -0.155504 0.00531594 -0.167185 -0.08051 0.00531156 -0.0070949 
-0.13843 0.00533176 0.0817677 -0.0571933 0.00536045 0.137141 -0.0788239 0.00534066 0.202502 
-0.129461 0.00531091 0.244889 -0.116132 0.00532631 0.244999 -0.106194 0.00537643 0.243809 
-0.0298525 0.00531394 -0.240563 -0.0382379 0.00529379 -0.229434 0.000788168 0.00530322 -0.213194 
0.0366689 0.00535076 -0.210648 -0.0217945 0.00533715 -0.195155 0.0175645 0.00531231 -0.131745 
-0.0193877 0.00528467 -0.124726 0.0269692 0.00531796 -0.125036 0.03684 0.00531183 -0.126682 
-0.0152518 0.00531165 -0.113604 -0.0301694 0.00529513 -0.0603306 -0.0151944 0.00531189 -0.0415705 
-0.0179365 0.00536994 -0.0299362 -0.0493323 0.00529833 -0.0477487 -0.0516522 0.00532851 -0.103937 
-0.000639681 0.00534367 0.17102 -0.00409811 0.00533941 0.182447 0.00623665 0.00532232 0.181159 
0.0215289 0.00539514 0.240746 0.0306001 0.00529026 0.236458 0.0124488 0.0053382 0.244992 
0.0422113 0.00537901 0.225531 0.0432355 0.00537511 0.245 0.0806507 0.00533885 -0.244402 
0.145829 0.00529036 -0.241101 0.0827554 0.00537676 -0.176755 0.147326 0.00529505 -0.159046 
0.130862 0.00536395 -0.110995 0.067681 0.00532526 -0.110834 0.0727341 0.00537229 -0.0811125 
0.064391 0.00536522 -0.0539839 0.0972601 0.00531104 0.232992 0.0994054 0.00532877 0.174566 
0.0913067 0.0052006 0.244999 0.186375 0.00535493 -0.241194 0.195719 0.00533387 -0.244734 
0.244999 0.0052485 -0.240268 0.194909 0.00539136 -0.224586 0.185661 0.00523652 -0.218051 
0.218048 0.00529169 -0.221983 0.231156 0.00536062 -0.233765 0.193407 0.00530813 -0.211729 
0.221825 0.00533292 -0.212707 0.180127 0.00529534 -0.207334 0.233363 0.00535611 -0.194634 
0.244998 0.00522481 -0.122474 0.212195 0.00531505 -0.0762304 0.228982 0.00529909 -0.0710437 
0.244997 0.00530625 -0.07697 0.240092 0.00531121 -0.0682361 0.232636 0.00537469 -0.0604023 
0.177251 0.00530049 -0.0451886 0.229838 0.00535565 -0.0470991 0.219002 0.00536478 -0.0284103 
0.205179 0.00529129 0.0130806 0.190473 0.00529052 0.103222 0.241058 0.00528478 0.115942 
0.192766 0.00531619 0.121546 0.20771 0.0052914 0.126261 0.237519 0.00528362 0.155912 
0.244713 0.00535654 0.170067 0.24364 0.00529367 0.245 0.159853 0.00531267 0.0566335 

VERTICES 207 414
1 0 
1 1 
1 2 
1 3 
1 4 
1 5 
1 6 
1 7 
1 8 
1 9 
1 10 
1 11 
1 12 
1 13 
1 14 
1 15 
1 16 
1 17 
1 18 
1 19 
1 20 
1 21 
1 22 
1 23 
1 24 
1 25 
1 26 
1 27 
1 28 
1 29 
1 30 
1 31 
1 32 
1 33 
1 34 
1 35 
1 36 
1 37 
1 38 
1 39 
1 40 
1 41 
1 42 
1 43 
1 44 
1 45 
1 46 
1 47 
1 48 
1 49 
1 50 
1 51 
1 52 
1 53 
1 54 
1 55 
1 56 
1 57 
1 58 
1 59 
1 60 
1 61 
1 62 
1 63 
1 64 
1 65 
1 66 
1 67 
1 68 
1 69 
1 70 
1 71 
1 72 
1 73 
1 74 
1 75 
1 76 
1 77 
1 78 
1 79 
1 80 
1 81 
1 82 
1 83 
1 84 
1 85 
1 86 
1 87 
1 88 
1 89 
1 90 
1 91 
1 92 
1 93 
1 94 
1 95 
1 96 
1 97 
1 98 
1 99 
1 100 
1 101 
1 102 
1 103 
1 104 
1 105 
1 106 
1 107 
1 108 
1 109 
1 110 
1 111 
1 112 
1 113 
1 114 
1 115 
1 116 
1 117 
1 118 
1 119 
1 120 
1 121 
1 122 
1 123 
1 124 
1 125 
1 126 
1 127 
1 128 
1 129 
1 130 
1 131 
1 132 
1 133 
1 134 
1 135 
1 136 
1 137 
1 138 
1 139 
1 140 
1 141 
1 142 
1 143 
1 144 
1 145 
1 146 
1 147 
1 148 
1 149 
1 150 
1 151 
1 152 
1 153 
1 154 
1 155 
1 156 
1 157 
1 158 
1 159 
1 160 
1 161 
1 162 
1 163 
1 164 
1 165 
1 166 
1 167 
1 168 
1 169 
1 170 
1 171 
1 172 
1 173 
1 174 
1 175 
1 176 
1 177 
1 178 
1 179 
1 180 
1 181 
1 182 
1 183 
1 184 
1 185 
1 186 
1 187 
1 188 
1 189 
1 190 
1 191 
1 192 
1 193 
1 194 
1 195 
1 196 
1 197 
1 198 
1 199 
1 200 
1 201 
1 202 
1 203 
1 204 
1 205 
1 206 

POINT_DATA 207
FIELD FieldData 3
id 1 207 int
131 2346 1013 1957 2186 7911 5794 6741 5883 
6357 1984 3028 3538 1458 1027 1269 488 4546 
371 17 2869 603 3392 208 1011 4783 1064 
1247 563 1304 1048 5831 187 3003 95 1949 
2804 2338 47 1836 4135 3760 3738 7074 921 
1555 4561 3629 2301 889 6484 3566 1820 6159 
3365 1118 2507 1869 4830 618 5380 3374 396 
8326 2428 2361 2100 2533 6454 3192 2371 2171 
97 92 755 1496 3282 7017 3628 2053 8696 
7899 1154 4486 6133 498 986 1356 2078 1834 
6251 258 553 2559 1444 4648 3327 4502 6347 
8119 575 180 1621 1478 1172 662 3341 2373 
1214 5001 8483 1368 2118 1383 3021 1503 2221 
8287 3043 4136 288 1439 1217 1248 4951 378 
2494 262 3400 1930 7100 4362 2623 4504 930 
1379 3674 2195 2748 6239 1874 809 7842 5126 
5244 2449 4482 4318 1785 2151 56 1483 264 
791 1817 7117 1838 1833 3539 945 4268 4273 
249 764 787 1047 7815 5071 456 1793 7818 
4478 386 2152 113 1180 3270 1545 1625 5920 
4496 239 515 1686 2230 1585 2606 1859 8673 
4317 1124 1577 3147 88 2063 2319 305 3472 
5088 692 4661 1320 2917 4356 1142 814 1146 

type 1 207 int
1 1 1 1 1 1 1 1 1 
1 1 1 1 1 1 1 1 1 
1 1 1 1 1 1 1 1 1 
1 1 1 1 1 1 1 1 1 
1 1 1 1 1 1 1 1 1 
1 1 1 1 1 1 1 1 1 
1 1 1 1 1 1 1 1 1 
1 1 1 1 1 1 1 1 1 
1 1 1 1 1 1 1 1 1 
1 1 1 1 1 1 1 1 1 
1 1 1 1 1 1 1 1 1 
1 1 1 1 1 1 1 1 1 
1 1 1 1 1 1 1 1 1 
1 1 1 1 1 1 1 1 1 
1 1 1 1 1 1 1 1 1 
1 1 1 1 1 1 1 1 1 
1 1 1 1 1 1 1 1 1 
1 1 1 1 1 1 1 1 1 
1 1 1 1 1 1 1 1 1 
1 1 1 1 1 1 1 1 1 
1 1 1 1 1 1 1 1 1 
1 1 1 1 1 1 1 1 1 
1 1 1 1 1 1 1 1 1 

radius 1 207 double
0.005 0.005 0.005 0.005 0.005 0.005 0.005 0.005 0.005 
0.005 0.005 0.005 0.005 0.005 0.005 0.005 0.005 0.005 
0.005 0.005 0.005 0.005 0.005 0.005 0.005 0.005 0.005 
0.005 0.005 0.005 0.005 0.005 0.005 0.005 0.005 0.005 
0.005 0.005 0.005 0.005 0.005 0.005 0.005 0.005 0.005 
0.005 0.005 0.005 0.005 0.005 0.005 0.005 0.005 0.005 
0.005 0.005 0.005 0.005 0.005 0.005 0.005 0.005 0.005 
0.005 0.005 0.005 0.005 0.005 0.005 0.005 0.005 0.005 
0.005 0.005 0.005 0.005 0.005 0.005 0.005 0.005 0.005 
0.005 0.005 0.005 0.005 0.005 0.005 0.005 0.005 0.005 
0.005 0.005 0.005 0.005 0.005 0.005 0.005 0.005 0.005 
0.005 0.005 0.005 0.005 0.005 0.005 0.005 0.005 0.005 
0.005 0.005 0.005 0.005 0.005 0.005 0.005 0.005 0.005 
0.005 0.005 0.005 0.005 0.005 0.005 0.005 0.005 0.005 
0.005 0.005 0.005 0.005 0.005 0.005 0.005 0.005 0.005 
0.005 0.005 0.005 0.005 0.005 0.005 0.005 0.005 0.005 
0.005 0.005 0.005 0.005 0.005 0.005 0.005 0.005 0.005 
0.005 0.005 0.005 0.005 0.005 0.005 0.005 0.005 0.005 
0.005 0.005 0.005 0.005 0.005 0.005 0.005 0.005 0.005 
0.005 0.005 0.005 0.005 0.005 0.005 0.005 0.005 0.005 
0.005 0.005 0.005 0.005 0.005 0.005 0.005 0.005 0.005 
0.005 0.005 0.005 0.005 0.005 0.005 0.005 0.005 0.005 
0.005 0.005 0.005 0.005 0.005 0.005 0.005 0.005 0.005 

