# vtk DataFile Version 4.0
Generated by LIGGGHTS
ASCII
DATASET POLYDATA
POINTS 4275 float
-0.235569 0.00459303 -0.242242 -0.21747 0.00515775 -0.241136 -0.17085 0.00748432 -0.24456 
-0.150948 0.00519798 -0.244997 -0.244947 0.00741556 -0.244315 -0.226398 0.00756633 -0.244966 
-0.232284 0.0142072 -0.0224477 -0.182204 0.0136903 -0.175386 -0.180523 0.0035935 -0.244884 
-0.167579 0.0115143 -0.0999757 -0.131639 0.00711791 -0.244989 -0.190322 0.00449527 -0.236255 
-0.159742 0.00948156 -0.242293 -0.140906 0.00244473 -0.242225 -0.22528 0.00382893 -0.229001 
-0.203197 0.00522373 -0.238981 -0.166741 0.00388614 -0.233132 -0.148391 0.00392986 -0.235401 
-0.139286 0.00657082 -0.231544 -0.241089 0.00449548 -0.232792 -0.139845 0.00973461 -0.0021094 
-0.210908 0.00373738 -0.232771 -0.227107 0.013216 -0.152539 -0.172599 0.014701 -0.160568 
-0.207804 0.00901678 -0.222785 -0.196711 0.00690433 -0.228861 -0.155841 0.00741031 -0.229205 
-0.130697 0.00524015 -0.223986 -0.234317 0.00637046 -0.225638 -0.130417 0.0132408 -0.201244 
-0.216699 0.00632991 -0.0148625 -0.218157 0.00735661 -0.222083 -0.18386 0.00448444 -0.227269 
-0.175717 0.0108665 -0.2209 -0.167697 0.00207648 -0.219058 -0.143062 0.0070326 -0.218113 
-0.244937 0.00701146 -0.220042 -0.225884 0.00285528 -0.0126529 -0.133517 0.00796339 -0.139636 
-0.154558 0.00986693 -0.216906 -0.237245 0.01051 -0.210975 -0.226742 0.00689572 -0.216441 
-0.21229 0.00918061 -0.213871 -0.204289 0.0022987 -0.213932 -0.193177 0.00372409 -0.219989 
-0.168569 0.0117972 -0.213289 -0.180231 0.0127477 -0.0284334 -0.212745 0.0137746 -0.244952 
-0.18858 0.00485782 -0.211103 -0.178847 0.00693366 -0.210084 -0.163161 0.00619551 -0.20516 
-0.148564 0.00683154 -0.209323 -0.200651 0.00459922 -0.00231408 -0.189344 0.00743259 -0.0306878 
-0.243842 0.00791225 -0.203978 -0.214074 0.0100262 -0.200902 -0.196729 0.01098 -0.206953 
-0.140298 0.0123966 -0.207785 -0.234196 0.00376138 -0.202019 -0.223767 0.00107165 -0.206636 
-0.245002 0.00622517 -4.22404e-05 -0.172681 0.00531068 -0.202023 -0.245001 0.00323621 -0.0115013 
-0.146052 0.00891017 -0.199321 -0.223449 0.00787889 -0.193173 -0.205337 0.0135154 -0.197426 
-0.195885 0.0106512 -0.195459 -0.186988 0.00878106 -0.202046 -0.164808 0.0029153 -0.192748 
-0.155294 0.00475853 -0.19838 -0.131182 0.00415536 -0.196509 -0.148553 0.0139792 -0.22482 
-0.234846 0.00664688 -0.190833 -0.208642 0.00206482 -0.191193 -0.17749 0.00582936 -0.1903 
-0.139925 0.00944702 -0.191435 -0.24498 0.00902342 -0.191646 -0.1573 0.00843284 -0.187358 
-0.244981 0.00949595 -0.181438 -0.187654 0.00766963 -0.189448 -0.165981 0.00660076 -0.182108 
-0.147795 0.0111248 -0.185214 -0.135041 0.00602992 -0.183223 -0.222783 0.00704882 -0.183235 
-0.132465 0.00375511 -0.0930988 -0.172478 0.0132511 -0.185792 -0.234078 0.0048311 -0.176676 
-0.205917 0.00848031 -0.181052 -0.196762 0.00506138 -0.185695 -0.175734 0.00581848 -0.177907 
-0.157106 0.009979 -0.176593 -0.145411 0.00694571 -0.175337 -0.227133 0.0118501 -0.235958 
-0.218083 0.0106731 -0.231807 -0.214661 0.0111606 -0.176795 -0.183688 0.00276834 -0.169804 
-0.226449 0.00800563 -0.170348 -0.196082 0.00445889 -0.169132 -0.163583 0.0116953 -0.168297 
-0.202305 0.0149039 -0.072114 -0.14751 0.013118 -0.239319 -0.159267 0.0138744 -0.19695 
-0.134966 0.00823991 -0.171301 -0.206233 0.0054542 -0.170656 -0.171992 0.00660388 -0.166488 
-0.180559 0.0122907 -0.00162913 -0.209078 0.00422253 -0.00809089 -0.185356 0.0132653 -0.244206 
-0.152439 0.00678008 -0.168246 -0.199679 0.0124265 -0.244992 -0.192783 0.00568445 -0.159732 
-0.182543 0.0096597 -0.159418 -0.244204 0.00629538 -0.165829 -0.230614 0.00423722 -0.161515 
-0.202517 0.00763745 -0.158562 -0.169541 0.00706848 -0.153105 -0.157452 0.0108024 -0.160452 
-0.138379 0.01144 -0.161376 -0.214885 0.0102628 -0.166684 -0.226255 0.0108409 -0.11193 
-0.176591 0.0135629 -0.237701 -0.222802 0.0134656 -0.00787705 -0.235768 0.00477078 -0.152964 
-0.222102 0.00399175 -0.155073 -0.212054 0.00407632 -0.1579 -0.179716 0.0136249 -0.149477 
-0.147077 0.00714 -0.158714 -0.245007 0.0104743 -0.153712 -0.244954 0.0140546 -0.144341 
-0.187692 0.0124014 -0.0109205 -0.199245 0.0135837 -0.00968298 -0.215884 0.0130242 -0.101815 
-0.205441 0.013365 -0.0627333 -0.215369 0.00230642 -0.14786 -0.205304 0.00895497 -0.144788 
-0.196142 0.00964043 -0.151131 -0.15953 0.00763382 -0.151149 -0.149714 0.00690706 -0.148964 
-0.199335 0.0146885 -0.186643 -0.225323 0.00694488 -0.139161 -0.183592 0.00333824 -0.144467 
-0.174125 0.00763164 -0.140869 -0.157624 0.00260087 -0.142226 -0.237192 0.00776285 -0.14353 
-0.19692 0.0135602 -0.141576 -0.155282 0.0101885 -0.0143963 -0.165772 0.012041 -0.144686 
-0.190674 0.00524202 -0.00359309 -0.244998 0.0119792 -0.123338 -0.233444 0.0055482 -0.131283 
-0.214177 0.0099524 -0.13331 -0.205426 0.00504853 -0.134863 -0.165152 0.0113305 -0.134083 
-0.150315 0.00382337 -0.135036 -0.143519 0.008942 -0.140708 -0.244656 0.00606166 -0.131958 
-0.195421 0.00785972 -0.133429 -0.183299 0.00710073 -0.134062 -0.174491 0.0124103 -0.127746 
-0.156951 0.00769387 -0.127368 -0.221526 0.0111763 -0.126302 -0.218186 0.00458553 -0.00356439 
-0.170732 0.0138376 -0.00495244 -0.210358 0.0047365 -0.125516 -0.236555 0.00628236 -0.121011 
-0.202228 0.0108768 -0.126748 -0.193119 0.00467293 -0.124061 -0.147286 0.0114798 -0.122014 
-0.204163 0.0135131 -0.230907 -0.222765 0.0139599 -0.0486187 -0.184416 0.0100902 -0.121467 
-0.164055 0.0121104 -0.121255 -0.225054 0.00255164 -0.117632 -0.244649 0.00697336 -0.112115 
-0.173655 0.0135152 -0.117066 -0.155859 0.00819006 -0.114787 -0.242681 0.0144382 -0.00660624 
-0.216649 0.0134921 -0.117177 -0.20555 0.00831996 -0.117072 -0.188681 0.0139557 -0.113286 
-0.245004 0.0136075 -0.0175409 -0.232712 0.0019111 -0.110804 -0.209139 0.00859544 -0.10775 
-0.141472 0.0133832 -0.109718 -0.194432 0.00574057 -0.109873 -0.179746 0.00955481 -0.110064 
-0.178709 0.0140495 -0.196558 -0.157183 0.00727195 -0.10438 -0.165244 0.0101599 -0.110287 
-0.244947 0.0090609 -0.102283 -0.234887 0.00904002 -0.101917 -0.189828 0.00877747 -0.101502 
-0.138127 0.00674308 -0.10077 -0.191461 0.0111625 -0.178417 -0.237979 0.0140766 -0.135817 
-0.148063 0.00526369 -0.0999227 -0.200254 0.00944371 -0.0981483 -0.171244 0.0121663 -0.0149674 
-0.135232 0.0148713 -0.0571457 -0.210035 0.00680552 -0.0956002 -0.185668 0.0102796 -0.219009 
-0.229686 0.0100232 -0.0934228 -0.141933 0.0142764 -0.0904337 -0.219732 0.0103679 -0.0921327 
-0.198652 0.0101026 -0.0882861 -0.177455 0.0100471 -0.10031 -0.156762 0.0149578 -0.0956442 
-0.162534 0.012349 -0.021097 -0.244934 0.00674066 -0.0888199 -0.173197 0.00943701 -0.0899199 
-0.197664 0.0141572 -0.221962 -0.162525 0.00718704 -0.0925416 -0.150891 0.0101467 -0.0886876 
-0.227642 0.00898314 -0.0831372 -0.188898 0.0114522 -0.0852095 -0.178043 0.00892379 -0.0804006 
-0.138427 0.00442858 -0.0850807 -0.147339 0.00822274 -0.00857044 -0.207985 0.00874437 -0.0810654 
-0.237344 0.0139325 -0.235099 -0.206741 0.012993 -0.0029538 -0.236457 0.0118282 -0.0791938 
-0.219341 0.0104547 -0.0765339 -0.196374 0.0100126 -0.0785604 -0.160051 0.00644606 -0.0806787 
-0.233484 0.0126649 -0.0492302 -0.187 0.00726175 -0.0752 -0.147403 0.011552 -0.0784771 
-0.134388 0.0114009 -0.0784546 -0.227337 0.00767577 -0.0698829 -0.156287 0.0104835 -0.0703924 
-0.132319 0.00667716 -0.0671357 -0.244712 0.00859859 -0.0692931 -0.180472 0.0149231 -0.0178562 
-0.166362 0.0104342 -0.0709276 -0.145092 0.00770843 -0.0684845 -0.194343 0.00841851 -0.0684842 
-0.18515 0.0114304 -0.0654392 -0.175443 0.00941909 -0.0667956 -0.236086 0.0138992 -0.0692162 
-0.222888 0.00966511 -0.0609809 -0.162166 0.0146243 -0.223615 -0.216324 0.0147462 -0.186101 
-0.234927 0.00491862 -0.0599273 -0.213457 0.00669966 -0.0627239 -0.206512 0.00690975 -0.0551196 
-0.188216 0.012779 -0.0560045 -0.173126 0.00856378 -0.0570372 -0.154602 0.0115315 -0.0582441 
-0.139736 0.0060669 -0.0601517 -0.244993 0.00532404 -0.057853 -0.197047 0.00806133 -0.0587025 
-0.164179 0.0117827 -0.0611529 -0.166099 0.0110787 -0.0498184 -0.135174 0.00601813 -0.051237 
-0.243164 0.00960568 -0.0489586 -0.227889 0.00460203 -0.0519046 -0.216026 0.00669163 -0.0519752 
-0.181927 0.00221615 -0.0501498 -0.198555 0.00812433 -0.0477868 -0.23119 0.00531321 -0.042478 
-0.203804 0.00477123 -0.0398119 -0.15532 0.00991368 -0.0472581 -0.14593 0.00961714 -0.0523396 
-0.209356 0.0106607 -0.045672 -0.231386 0.0146212 -0.0588245 -0.244381 0.0081238 -0.0377014 
-0.221085 0.0038488 -0.0430931 -0.189606 0.00422266 -0.0440966 -0.173783 0.00328104 -0.043741 
-0.138902 0.00758243 -0.0409938 -0.195376 0.0102178 -0.0382203 -0.181401 0.010106 -0.0438286 
-0.20837 0.0122423 -0.0144044 -0.19293 0.0138156 -0.0207969 -0.14725 0.0130165 -0.0421284 
-0.234005 0.008272 -0.0330007 -0.201687 0.00382442 -0.0300903 -0.180942 0.00247385 -0.0349459 
-0.22118 0.0144992 -0.206424 -0.162231 0.0080911 -0.000410017 -0.214787 0.00882825 -0.0350317 
-0.133323 0.00893319 -0.0320533 -0.228014 0.00455561 -0.0247188 -0.212313 0.00851798 -0.0248168 
-0.166344 0.0106793 -0.0324185 -0.244633 0.00557649 -0.0247974 -0.236253 0.00666684 -0.00633086 
-0.194962 0.0041425 -0.0226856 -0.145298 0.0106779 -0.0283312 -0.221648 0.0124379 -0.023471 
-0.203726 0.00394315 -0.0176952 -0.1848 0.00492069 -0.0220914 -0.155067 0.0128661 -0.0279883 
-0.144085 0.0105989 -0.0177734 -0.172107 0.00761226 -0.0246423 -0.136293 0.00663456 -0.0226623 
-0.23731 0.00718001 -0.0165287 -0.194816 0.00476242 -0.0126899 -0.180814 0.00454918 -0.0102959 
-0.164704 0.00640917 -0.0100398 -0.133938 0.0080583 -0.0123311 -0.136135 0.0137885 -0.22332 
-0.234069 0.0144935 -0.244947 -0.195797 0.0148933 -0.120238 -0.173502 0.0148266 -0.205069 
-0.228602 0.00516189 -1.89136e-05 -0.204088 0.00628184 0.00725128 -0.199402 0.0137822 0.164983 
-0.193463 0.000955602 0.00845065 -0.181474 0.011873 0.16633 -0.171324 0.0041922 0.00477908 
-0.244977 0.0047883 0.0102314 -0.235952 0.00737581 0.00660679 -0.2208 0.00574175 0.00883989 
-0.1818 0.00543594 0.0116066 -0.144003 0.00693985 0.00966934 -0.133367 0.00757355 0.00826479 
[...]
POINT_DATA 4275
FIELD FieldData 3
id 1 4275 int
917 1313 484 870 3034 1786 1316 2601 3489 
3116 2693 3187 3891 1026 2178 1777 482 1792 
149 445 1895 1783 3938 1032 2209 3950 2681 
3056 3063 3942 3032 2215 4004 13 538 4033 
3930 3503 3177 3024 487 922 2182 3492 1337 
901 3506 2202 3473 3460 7 3180 516 1340 
1354 2627 1757 1477 3055 911 77 2606 874 
3190 481 475 3074 1420 2216 1750 4001 2271 
3053 1761 1353 3988 1779 454 3038 3070 477 
608 1903 1752 3128 2176 471 871 2195 486 
2603 1413 2597 3502 2634 2201 3035 3061 3946 
1753 1749 2736 1483 1796 492 2236 3940 3543 
2214 2638 3461 3511 1797 3465 1338 1793 1778 
3624 2177 468 8 38 2222 1345 3926 15 
531 39 63 3508 2181 2649 1479 3931 4034 
2212 1321 3059 40 1801 2221 918 1915 3504 
491 169 1782 3521 2314 1762 3894 904 1837 
181 96 450 1339 1467 3545 3189 910 3104 
142 899 46 925 3471 1349 2217 3982 877 
1756 906 2644 590 614 935 1348 2629 1416 
1347 881 1798 2636 49 1411 3497 3130 3195 
3469 3944 3482 2263 3486 2623 2746 1898 462 
3592 3893 1325 1759 2648 3078 913 2180 3079 
3064 3 1005 451 2732 3985 872 2699 45 
2339 2336 3071 1774 3467 3943 2639 2621 1852 
446 1849 3608 3112 1352 52 2206 3463 2626 
868 1314 3992 1924 55 3485 2598 3494 3472 
2211 2599 493 2199 1784 2196 2213 1357 1787 
3932 2326 3062 3060 3923 3028 1019 3899 479 
961 510 2647 11 3076 2698 3904 485 3935 
875 35 2756 3951 60 1905 473 1838 22 
3484 2630 1360 472 3050 490 3892 3929 67 
1375 4049 1311 3054 873 3033 594 50 1356 
3928 2204 3108 218 3493 12 1323 591 3051 
3542 2 2678 3919 500 206 1794 3464 2205 
951 3202 81 2228 1371 1776 1359 3958 1054 
2673 2379 3470 71 3213 916 2650 953 1802 
2248 3086 2652 2656 3229 4082 1330 519 1822 
25 211 933 2617 498 511 92 3520 3084 
4026 3963 4080 1069 2664 512 3081 3031 17 
3145 4015 2667 3101 88 4073 1830 3093 890 
3968 3917 43 1397 215 70 1074 2679 4094 
3975 33 1819 2225 882 3525 1386 2672 470 
1394 3955 1812 3228 3221 3099 1767 499 896 
3515 2653 136 2661 1827 1373 947 3094 2662 
2670 1424 943 888 886 3570 3522 2615 3571 
3910 1331 948 2233 86 4106 2663 549 2203 
496 1809 1511 1370 3088 3110 66 1389 1828 
1833 2244 1377 1368 3479 2665 2237 501 3518 
3962 2242 84 1807 3657 224 495 1384 509 
3529 628 3230 944 3537 2253 4017 3956 3474 
559 2713 1869 3523 1063 2251 3039 3981 217 
1429 2677 942 3475 1963 2254 3048 3478 2783 
1087 2651 1385 518 937 1808 3539 1826 3912 
3098 216 3960 1334 3952 2612 456 3526 3103 
929 1427 2618 2791 2230 3083 514 956 1821 
3914 949 1768 3109 3082 32 2234 895 3920 
2243 2238 1423 2193 3965 3635 3967 3046 990 
3045 2637 76 2659 1769 458 2769 1520 2666 
952 1379 1934 1773 1815 3911 2192 1766 193 
460 2613 1816 1392 2675 1326 3961 1810 2676 
3959 85 2189 3915 4012 2674 1391 2186 1071 
3528 3976 457 2349 2227 884 75 3980 1824 
1076 4077 1499 3091 934 945 3085 69 2232 
1374 3906 2187 2660 497 3949 28 3092 503 
4083 1387 2383 68 927 1396 3530 2231 3141 
1500 2250 2378 2179 3517 1376 79 1383 4104 
3907 1372 2224 954 3533 1318 1820 3087 885 
3527 1332 931 1369 1061 2239 1930 2633 2280 
2654 505 44 1003 920 3483 1351 960 1341 
1324 3077 3548 5 1366 3933 576 3069 2197 
970 1900 1006 3025 3066 2643 1406 3047 464 
1319 99 14 3027 897 1755 586 453 1310 
3902 2646 3598 529 29 74 3927 36 2337 
1350 1344 1408 2210 535 1355 3029 3487 489 
869 898 2208 3495 909 3196 1317 2625 912 
2641 62 466 2690 1393 2624 16 3036 2632 
3462 59 2631 3491 2607 101 2184 1775 1401 
53 1358 597 3947 926 1834 2198 3925 1044 
1312 546 1781 3159 37 444 1795 488 10 
3900 3163 3182 880 469 606 58 915 3057 
2602 1844 1363 2640 3065 2220 1884 2605 581 
1758 966 1362 921 3115 1791 3897 3068 3037 
3934 3903 3551 3607 1365 448 1445 1361 2328 
3630 1315 905 1760 1342 3466 3895 3120 1799 
1800 2645 2620 3994 2200 467 452 1 2207 
465 876 2183 3939 2694 476 1343 3532 3510 
2600 1856 599 176 3922 474 3490 3905 1904 
1464 900 9 3643 3558 2752 483 1921 3030 
889 907 3898 1309 2218 3945 47 2325 3509 
3186 914 1765 54 3498 41 1322 3941 2635 
2256 2185 2628 1751 2622 1346 1923 2755 3896 
480 602 3026 879 1031 3459 2223 2342 3544 
902 1320 3049 2219 940 1771 1763 3924 3512 
878 3095 936 1060 2608 2604 1443 1764 3107 
634 1053 1785 3044 3236 3147 3921 3090 2241 
887 1333 51 1937 2226 3953 1328 2288 449 
3973 2252 508 938 3541 3918 1813 3477 4076 
3936 3916 567 1367 3513 1876 923 1811 4103 
3481 2249 89 3052 2609 2804 3516 187 1381 
3480 2235 548 3531 21 1823 1388 3569 3106 
2614 2668 561 892 3538 1874 891 950 1516 
23 941 1814 515 3100 1390 2611 883 3957 
3969 93 4024 461 463 2658 2374 1497 1501 
64 3144 625 1817 2247 1336 3970 91 3476 
1062 2655 521 3043 1051 955 2610 494 643 
42 3524 637 18 3535 72 1862 2229 4074 
4090 3111 2246 1329 3153 90 126 520 24 
2188 1382 1378 2363 80 3041 459 3089 27 
2657 1327 30 930 3964 2768 3979 2240 3080 
2191 3972 2671 199 3097 939 893 95 523 
34 1395 3966 1772 1871 128 3540 2809 20 
984 2723 517 1770 3971 1335 3534 932 2642 
2669 894 19 506 507 513 3978 2190 4091 
3552 48 525 155 3599 1009 589 158 1414 
1455 3679 1908 2760 1841 1854 171 526 1461 
1948 3631 3620 1011 3022 2324 1016 112 978 
4064 3622 1040 1882 1447 3184 3604 1028 2340 
1486 604 979 3175 1405 4055 2351 1020 2750 
447 574 2329 3164 160 1451 4005 2316 1495 
110 1037 3119 1402 4058 1103 3554 3560 3983 
3075 106 2040 1897 1480 1398 2728 2697 2333 
4066 3166 2331 3686 3596 3556 573 2301 108 
4041 245 714 1412 962 2729 4036 1789 178 
3602 4060 4002 179 2267 1012 4065 1468 1919 
174 4050 2327 578 3263 4030 1460 598 2749 
1899 2272 1853 111 4047 177 1579 1896 3067 
107 3549 1890 584 3728 731 3559 3129 583 
3468 1846 156 4045 1918 2259 3188 973 3996 
4037 959 3174 588 4054 1462 4187 3113 183 
4067 297 4031 157 3127 1754 3197 2307 2265 
4061 2757 957 2275 3997 2353 527 2332 1409 
3201 1891 2759 4194 1400 3134 1595 3948 3606 
963 2260 1478 3131 1030 3987 613 2320 1850 
1024 3165 595 1141 3615 116 3121 2269 1902 
1022 1456 3172 4171 98 958 2764 154 3591 
2696 1858 1599 1452 2398 4057 2274 539 1041 
1058 1463 105 972 170 109 1913 603 1482 
1034 2262 184 4048 1117 3984 587 3198 903 
1883 1885 3614 543 4172 2685 2276 1017 4043 
162 1029 3200 605 924 1430 2407 3603 1906 
4198 3562 308 148 2738 3627 2334 1039 577 
2261 580 2451 102 2701 4062 1971 4 652 
3170 2741 3590 553 1893 533 114 2692 3990 
541 2734 3307 3209 1459 3561 3594 1472 4046 
3168 1042 1887 1013 1454 2310 542 1840 1637 
2396 2822 3995 2889 281 2321 1867 1004 3300 
504 3617 4042 2748 2731 2306 2727 3595 3205 
3623 2709 3167 4000 745 1444 3160 3245 1078 
2702 346 3058 182 2742 1100 2344 2682 3191 
547 2266 1476 3557 3616 593 315 2688 4035 
146 203 3634 3215 175 4108 3665 118 1440 
2299 3672 3650 1470 3233 151 1437 122 1407 
2319 2368 209 1790 3654 623 631 1048 3908 
3154 1457 4009 1865 618 113 220 3658 1959 
3212 2771 2790 4087 195 4014 3194 2786 3567 
4006 2369 1179 3146 2706 2798 1991 655 1942 
3040 1889 3235 778 1938 2292 3217 3639 3791 
1085 213 1188 653 2286 4109 1878 153 100 
2366 3206 4079 4093 641 1565 2194 620 1119 
983 2710 1558 2356 4084 2287 3574 2376 1131 
2770 4013 2294 3222 2773 130 228 1439 646 
3148 2352 642 3207 1202 3703 3242 2718 2056 
133 4020 3208 1926 2806 212 83 987 1659 
551 205 3668 1881 1422 3138 121 2380 3137 
2777 1951 1868 1990 622 1505 221 2282 2384 
2788 2291 3203 3646 3637 82 1426 1943 552 
570 3585 3669 4081 3223 757 321 1081 135 
1441 140 1432 1925 3641 2415 1123 698 3642 
229 2362 1059 1873 1064 3140 651 1442 3653 
3234 2720 210 4112 3666 1966 2069 3662 563 
3240 1523 2074 1431 3579 4010 1825 1649 1805 
1941 2297 3636 1494 1492 2284 2716 992 2293 
1046 564 2345 4096 4025 1879 1573 207 1504 
569 991 568 1075 3581 3568 3214 2705 3656 
1436 3578 3238 4092 981 3660 2385 78 4085 
1946 214 2799 2800 4110 2707 1954 2359 1077 
1490 2279 4023 204 1079 4100 1574 649 640 
989 3142 1065 3576 985 2355 994 1002 2371 
2372 2805 1518 1527 1001 1514 143 1863 1435 
185 1066 3586 4097 189 3155 3149 1880 1997 
1877 3096 131 137 556 1947 1961 227 455 
2350 644 2365 3648 2795 94 2782 3667 998 
3632 1927 2714 550 2711 3536 1832 627 2802 
3670 1191 2808 560 2501 2505 1433 3909 1522 
1956 138 197 1502 3573 201 4227 562 3566 
986 3778 3651 3152 3647 3577 1509 4022 1965 
268 3231 2358 2910 139 2916 1870 3671 134 
1438 4088 537 3619 3733 3600 2922 166 1510 
2309 3628 3126 2462 1465 4038 1027 3185 967 
3565 919 1842 3760 1035 4039 601 2323 150 
61 3610 3547 1015 2367 188 103 1950 2730 
4003 1845 2302 306 1892 2264 2258 1907 4040 
4053 3178 4126 3609 2472 1036 2680 1014 3183 
152 117 3621 295 2739 186 610 3625 2683 
600 2311 1038 3125 1909 3171 4115 977 3729 
3173 2312 1886 596 908 974 1532 2686 609 
971 1536 1446 528 3611 976 2270 3496 3122 
161 2691 3169 2322 1917 3555 165 2305 163 
2700 675 1512 4069 2023 524 1484 4052 2753 
3605 2695 2684 2744 572 2762 1922 3937 1920 
1448 2315 1988 167 4063 1788 2277 612 1851 
2743 2735 1419 1901 969 2009 3697 222 1043 
1857 3709 1415 544 2387 1843 532 3618 168 
1888 1450 607 530 2861 4056 2041 2761 2257 
6 159 1474 2308 2341 3688 3626 2766 1418 
3193 2725 147 1466 2343 2268 2295 968 996 
4119 3298 3692 3612 1399 3690 4078 1912 1521 
3761 1453 2317 2687 2042 1803 1010 3124 579 
180 172 545 2464 3613 1473 2803 3629 1911 
1018 3181 2255 2733 196 1914 2726 4068 2466 
144 3553 1836 3998 575 592 1894 145 1410 
2408 4051 3721 1023 1417 585 4007 1403 965 
2507 2758 57 2740 1916 2772 4011 1488 198 
120 1428 192 1449 1070 2807 3644 194 3158 
3139 1517 1864 2354 1211 1475 4212 3584 3102 
1936 2503 1528 636 993 2281 1861 3243 190 
129 654 695 3575 4150 1491 1638 1872 630 
1080 2704 1944 1506 3218 2717 4027 2801 2616 
1962 3661 1957 621 3663 1425 2793 2779 3280 
558 3649 3673 2708 980 3659 2703 2298 123 
1057 2300 1047 1935 1526 65 4071 132 997 
1945 2002 3364 3227 3105 1804 4089 3583 4008 
1955 632 774 3135 3157 3224 647 975 200 
3241 2296 1493 191 127 982 629 946 656 
4098 2785 3633 2364 988 633 2373 219 619 
502 125 1073 4072 1380 202 1000 1055 1524 
2712 645 3519 635 3211 2781 2722 1496 4028 
3652 1928 1953 2357 554 4018 141 2778 1515 
638 2774 1086 3977 124 571 3143 2348 566 
1434 3993 616 4136 3913 208 1875 3225 1995 
2386 2784 4075 1489 3216 4111 3156 1082 1949 
1960 2780 3582 1932 615 2375 2067 3589 31 
1049 1859 648 2775 2719 225 1056 4215 3204 
1933 565 617 2290 2907 3954 2792 1831 3645 
2245 4029 4102 2285 1513 3587 3136 1508 1958 
3716 2425 1619 2278 522 1471 1866 626 3784 
1498 3220 2370 1084 2347 928 4107 2724 1552 
4158 3292 1267 674 724 3593 3316 2453 3118 
3564 3294 310 4196 2459 3372 2871 1174 233 
2018 1855 2884 2035 285 2397 2013 3246 3254 
2810 1108 247 2814 725 248 1021 1169 2875 
1404 2335 668 3321 1581 282 715 4175 286 
536 2403 3261 708 1582 3725 3986 2447 2019 
3774 2313 4197 2037 2763 3291 274 1166 2765 
1093 4141 4173 298 659 1981 3251 1542 611 
2441 2021 3262 236 730 2745 1148 3328 3132 
1170 2026 1973 2816 2862 2473 3256 3176 3255 
3731 4164 2879 1548 711 3322 3290 1571 680 
2539 2014 1592 2036 4120 4116 4163 2405 2448 
304 2819 1099 3756 665 3264 1986 232 670 
3754 3687 4168 2754 2828 3726 1602 1546 1604 
1605 719 1138 4191 1688 4117 2468 3749 1611 
738 3678 1578 3304 2404 4169 3313 3318 3247 
3727 240 2039 278 115 3757 2400 1158 4167 
1593 1155 299 1968 3330 1547 2880 4032 1094 
2440 3730 1835 3301 3759 1576 2046 707 1149 
3745 2071 305 2878 2830 239 704 3563 3695 
4129 1731 3747 734 1615 3151 1689 1535 3681 
3751 3744 3249 3755 1146 294 2487 1551 287 
666 2821 2446 273 2304 3738 2028 1590 1142 
1701 1458 3743 661 252 3310 1088 1090 1089 
3317 3683 3308 309 2445 2435 3989 1538 2452 
173 3758 2874 1970 1530 3693 2829 1847 1583 
1616 2812 2813 727 1529 2010 3763 2886 3677 
1173 2027 4185 2991 716 4145 3311 1098 1984 
540 1107 677 1654 97 250 2045 3722 1848 
1096 246 1097 821 279 307 726 2831 3265 
1617 3601 2891 2456 244 1161 2860 3723 2436 
2826 4287 164 337 3250 4184 722 4296 2084 
1157 2883 1135 3680 3114 2881 3117 1537 231 
3682 2008 251 1539 1139 3753 2437 3248 2011 
385 2022 3162 2471 238 3413 2390 1976 2015 
4127 3732 2097 4177 1607 2432 534 3740 2443 
3312 3846 1007 2820 2465 3772 1609 3192 4105 
3259 1102 2850 3365 999 2064 2854 4132 267 
743 752 3273 2902 582 3410 1603 2065 265 
789 1555 2449 3720 773 2043 3355 259 344 
3638 3282 712 2715 1126 1208 3340 223 1194 
1639 3999 2079 1052 3278 1113 332 1159 760 
4149 1967 2463 2914 319 1642 3702 1067 4222 
4263 1625 4228 2903 1033 2938 2479 691 2382 
2164 2049 235 3795 2455 2154 3275 1556 2900 
4234 4230 325 4138 253 4137 2502 1114 776 
3640 2508 4225 1644 4101 2068 2915 756 2003 
4147 1213 1646 3768 765 3331 1192 2474 3341 
1128 323 2721 2842 4216 684 681 2491 327 
3572 693 4139 2420 3370 2901 2480 2418 4237 
1183 2066 689 3343 755 3271 3792 995 3352 
1198 762 2839 3783 2776 1525 2833 2856 2006 
1130 4156 2051 2414 2070 3781 3655 1124 3712 
1195 1651 2841 781 682 318 847 3226 2935 
331 4224 316 2416 1294 849 1289 2787 4210 
2882 3806 4086 2913 3366 3705 1723 3706 1297 
1238 3719 2509 1201 4221 1656 3823 4325 3698 
2929 2919 3362 2083 2086 3714 1620 1212 1122 
443 3354 3239 3803 324 2904 3444 2908 650 
1645 2428 320 1568 2429 329 2932 699 4318 
345 2377 2506 2494 3371 3358 347 2424 2497 
2512 4207 4151 1177 1572 4236 2789 3356 3786 
2926 1184 1185 4152 1999 1939 2088 1940 3346 
3701 1193 4144 3369 326 3277 3819 696 2843 
352 779 775 1998 3796 1120 2431 322 2589 
2511 4095 2853 768 2410 748 2906 3765 742 
763 3785 1633 770 2492 4019 1626 1559 258 
1553 2361 2478 1629 2514 1952 3359 3363 3288 
1564 355 1996 269 3350 1072 1176 4155 226 
2360 1648 1050 1129 1300 1112 1682 2847 3338 
1200 272 1635 4153 2082 372 3764 2912 692 
333 4143 3664 3379 2510 3801 3332 3879 1570 
3267 758 2346 4233 2089 1627 1487 4099 335 
4016 2939 4142 1575 1507 2504 2109 1178 3707 
2937 2423 1205 1196 2917 694 1994 1608 2872 
3684 1657 2444 964 2442 1109 1481 2044 3746 
3991 2434 4118 2823 2824 4190 1160 735 709 
1147 2020 3303 4059 3737 4180 367 2273 3821 
1910 2827 729 710 2467 3323 3675 1929 2873 
1540 703 1977 4192 1586 2564 3244 3597 4165 
4125 723 2318 2892 1972 2303 660 663 2767 
1531 1585 243 1974 2007 4121 2954 4284 2747 
4130 2894 2080 1101 4070 2867 291 3232 311 
732 3161 249 4189 4176 1533 3742 739 3762 
277 2890 3309 1596 1534 2394 4122 1975 2012 
3302 3293 1168 705 2859 241 1163 706 2470 
2689 3306 289 2818 1591 2905 3546 1600 280 
2817 1589 4160 1134 2870 1969 2330 3199 2433 
2888 671 4181 1104 2034 3257 3838 2460 1485 
1143 728 2389 3375 555 293 2454 733 1110 
2877 1641 4166 2457 1150 3295 4113 4174 672 
1133 2887 2388 4183 3325 2751 3133 283 1718 
1154 3674 3368 1598 301 1156 2338 3423 290 
3676 2868 3260 119 3296 296 3689 2895 1983 
4182 300 2876 3694 3252 713 662 669 2737 
4218 3281 4162 292 736 3750 3314 1167 4159 
314 2811 1469 3319 3315 1197 740 1979 1162 
1982 720 1632 4188 3324 1839 2005 4134 104 
1008 2402 2896 1210 1165 3393 1083 3804 3798 
3718 3710 639 3334 2024 4131 1136 2845 1025 
3449 3336 2393 1612 2283 3351 3828 4203 2060 
3685 2923 3345 263 254 3333 242 2934 4044 
2054 271 1647 4146 348 334 4161 338 2481 
3287 342 751 4223 2050 1643 3799 3276 3457 
2489 1653 686 1563 2078 3889 255 3794 4235 
1566 4170 3286 2075 4205 2427 688 1931 2930 
2500 3237 1068 3349 1631 256 3700 350 3788 
3342 2927 4202 557 1567 343 2852 2061 4021 
1206 2797 2933 3704 1674 4231 3388 4200 4206 
744 3715 2484 1636 257 2899 2918 4238 270 
1115 3274 3824 764 2052 761 3588 340 3711 
2496 1655 753 679 3769 690 3775 3337 3773 
3360 4211 4229 1045 2062 1992 4217 3279 4154 
3272 683 3283 1214 624 3361 317 3691 4226 
1621 4157 3871 2846 2844 1628 3270 2488 4199 
1181 2928 3284 382 2513 1421 1562 1095 3580 
3713 2411 1640 3150 3258 1630 1199 264 328 
1190 266 772 1623 2085 3780 2381 759 2076 
1121 2055 2000 2925 697 766 2059 2289 2485 
4213 2053 2498 2796 2794 3219 767 2482 777 
2419 1215 1118 1650 2837 1132 771 1092 330 
303 336 2001 3447 747 3771 1860 4148 2421 
3708 1203 678 1503 339 1560 3353 1989 2048 
401 2970 3839 1584 1667 2144 4253 3809 2117 
1717 1255 808 1145 2948 3739 3383 834 1250 
4283 3833 791 718 700 2406 4178 3424 4300 
4279 3842 1577 1276 384 4282 2898 2945 2947 
2544 1706 2526 390 395 1610 3735 2126 2942 
4133 4274 1265 2391 3854 4135 2047 4275 2523 
2543 4186 2550 2031 3811 2950 831 3829 2128 
1543 830 2033 4276 785 1268 230 4252 1696 
397 1140 3402 2099 3843 2565 1271 357 368 
1985 2542 2988 237 2979 1218 2138 1580 702 
1172 4245 2145 3380 826 3851 392 807 813 
302 3748 3841 2399 2560 1106 3378 1153 811 
4247 2132 1137 1224 4273 1671 1712 2864 2553 
3403 2983 2561 3834 3266 1226 2093 4246 3852 
2521 2438 3253 4294 2545 2547 2546 2971 1275 
812 2133 389 2966 1253 2032 3844 2969 2552 
363 2825 1715 2091 4280 2562 3381 2944 2525 
3384 3860 1258 1693 1716 2121 4240 1707 2439 
1668 234 3807 1662 828 1278 4297 2520 2531 
4241 4255 2975 2990 717 2137 2951 2136 4302 
4244 3849 2122 787 2131 2987 1669 1544 1714 
3400 3736 2537 1272 2518 3416 3405 1270 3840 
2461 3812 1227 1601 365 3847 3853 2558 3865 
2893 2469 3850 3018 1248 4301 1105 2092 2941 
1262 1260 790 3873 3831 2978 393 3837 1702 
1699 809 2943 1691 2557 1698 412 2120 3417 
1545 1164 4291 403 806 4278 1694 2940 408 
783 835 404 1663 1692 4298 1228 4195 1249 
1264 2986 4242 1690 2515 402 737 4285 2869 
1091 3347 3808 1229 1251 2450 3832 3425 396 
276 2981 4288 1713 1597 410 4261 3299 3421 
1151 2885 2989 3881 2980 2967 1254 3875 2119 
2956 1987 1243 1269 3418 2985 3003 288 854 
1263 2996 2517 360 2815 823 795 4290 2098 
810 394 1549 1673 2143 792 2949 1221 2995 
2984 423 840 4114 3395 4286 3443 817 701 
2958 3426 1685 864 799 3450 1719 2838 2549 
3385 1720 3441 1230 819 2157 3789 4232 3883 
1259 2964 4309 2855 2836 676 1678 2102 3890 
1303 3766 855 2104 2992 4331 349 2165 866 
4305 434 1681 2994 1240 848 687 859 3874 
4320 1305 837 2169 2538 2865 1204 1561 4326 
804 3021 3699 3432 2073 3435 3878 850 2426 
4219 2530 3014 2574 1741 2160 3885 2572 3454 
1557 370 427 2960 2532 2458 1233 746 354 
3820 3866 1295 2976 4239 3268 2997 794 1234 
380 2579 1732 2588 383 2536 2147 865 2840 
422 2101 2582 429 1285 1687 1242 3005 2998 
3822 4327 860 1738 4304 3448 3446 861 262 
4332 1679 3770 2430 2476 413 1304 2475 1187 
2108 416 3357 4306 4266 1207 1125 1241 2490 
1293 3777 2113 379 3396 1180 2920 3020 3015 
421 3782 1291 801 430 1296 415 436 1247 
2148 2172 3887 1292 2580 769 2924 685 1745 
2590 4319 2171 3017 4313 2111 863 1733 4271 
1747 353 802 3818 4220 260 414 2961 2486 
2592 4262 1624 1721 433 2576 852 2575 3816 
2072 1652 3344 1280 803 3814 2533 1302 3876 
841 2959 4322 2534 3436 4201 371 1729 2163 
2159 2585 2573 3006 2087 851 2931 3455 1111 
1727 2955 856 4324 2103 1244 3387 4314 2174 
2567 2936 3019 4209 1284 1743 2993 1730 867 
2586 2594 2483 2570 2155 2057 3011 2581 417 
1735 3269 4330 3008 3880 3434 1658 2595 2591 
3817 428 1728 2583 858 3390 1684 1744 3453 
1235 2110 1232 3004 3392 424 3872 3886 3861 
1726 2081 798 1281 377 3013 1676 1734 2161 
3790 2004 2162 3339 3414 2858 2946 2412 3412 
2857 836 815 1661 3409 359 1670 2897 4243 
4179 784 3320 275 2409 3289 822 780 398 
4272 2038 3305 1660 2965 2115 4277 313 825 
2141 2963 2548 2123 824 386 786 1245 3848 
3327 2025 3855 364 3374 1541 1175 1256 388 
2832 838 2129 788 3377 4249 2866 1152 3752 
829 2559 3845 3859 1223 2401 3404 4250 411 
3382 2540 4269 3373 399 2114 362 2973 4299 
2130 3856 4293 2863 2125 4193 1261 4128 1252 
2977 1222 1697 1588 1672 814 381 3297 1171 
1739 3741 1217 1980 2029 2563 721 407 2127 
2118 2968 3408 2142 3813 3427 3734 1220 1277 
1225 673 1257 2952 2135 1219 2519 1711 4281 
3420 387 3399 2095 1978 782 3376 2522 667 
2017 284 2030 4289 2551 3415 2982 2096 356 
664 2116 1283 1613 3428 1266 2094 1246 2972 
1664 820 361 2140 833 3326 369 4124 405 
3329 2016 1695 1665 1704 832 842 4328 2541 
4295 3835 657 4254 2090 438 1710 1594 1606 
2392 358 4251 2134 409 2527 3422 2100 1703 
3810 1700 2556 3858 4292 827 2974 2524 3406 
3857 816 3724 391 1705 406 400 1144 1708 
1550 432 4123 2139 2167 1182 2152 1239 1189 
853 658 796 1709 4310 2107 431 797 3430 
2835 1587 3451 2413 2554 2957 2151 3407 3805 
3433 3348 1209 2851 1680 341 2528 3389 3391 
3419 2571 440 4312 3397 2395 4257 3815 4308 