# vtk DataFile Version 4.0
Generated by LIGGGHTS
ASCII
DATASET POLYDATA
POINTS 4227 float
-0.232324 0.00630365 -0.244952 -0.217576 0.00612553 -0.244884 -0.185779 0.00479828 -0.244972 
-0.166181 0.00711784 -0.244885 -0.155326 0.00487951 -0.244439 -0.139141 0.0149248 -0.244172 
-0.244986 0.00770906 -0.242613 -0.224829 0.0130457 -0.244323 -0.201382 0.00546631 -0.245014 
-0.176167 0.0071868 -0.243314 -0.190798 0.0128558 -0.0066549 -0.1443 0.0102324 -0.00714561 
-0.23634 0.00718592 -0.235808 -0.212865 0.00636636 -0.235959 -0.148213 0.013629 -0.0595232 
-0.193772 0.00559742 -0.233746 -0.222844 0.00739493 -0.235953 -0.182653 0.00622334 -0.234955 
-0.155554 0.00544966 -0.233294 -0.142505 0.00684426 -0.232834 -0.244664 0.0127079 -0.233974 
-0.197938 0.0144909 -0.0342772 -0.131578 0.0148379 -0.0131526 -0.239212 0.00785185 -0.224811 
-0.221563 0.00532306 -0.225622 -0.163631 0.00643063 -0.226099 -0.146927 0.00834289 -0.222439 
-0.229781 0.0108195 -0.229067 -0.187643 0.0114606 -0.228005 -0.177898 0.0058879 -0.226136 
-0.155751 0.0131615 -0.223005 -0.233996 0.0080947 -0.0110193 -0.209877 0.00702988 -0.221275 
-0.195358 0.00621808 -0.223636 -0.171329 0.00637455 -0.218144 -0.244972 0.015059 -0.0253578 
-0.204524 0.0143681 -0.1145 -0.155822 0.0117314 -0.00488937 -0.137447 0.0115411 -0.22001 
-0.218533 0.007008 -0.216257 -0.208971 0.00660863 -0.210768 -0.181045 0.00627419 -0.214442 
-0.151264 0.00787041 -0.213175 -0.228797 0.00630123 -0.218754 -0.20175 0.0106775 -0.216706 
-0.189095 0.0125794 -0.216622 -0.234072 0.00554282 -0.209582 -0.194092 0.00796371 -0.209029 
-0.170093 0.00926802 -0.208649 -0.160535 0.00588488 -0.209708 -0.141445 0.0073679 -0.209645 
-0.13043 0.00608562 -0.211433 -0.244972 0.0050679 -0.209698 -0.224721 0.0100607 -0.208978 
-0.13452 0.0137251 -0.206141 -0.215935 0.00717753 -0.201687 -0.202903 0.00636146 -0.202762 
-0.17796 0.00671485 -0.202658 -0.138215 0.00771025 -0.199057 -0.131977 0.0147874 -0.0357981 
-0.204985 0.0126194 -0.238935 -0.15672 0.00957661 -0.20126 -0.244908 0.00601265 -0.199214 
-0.228482 0.00746332 -0.199331 -0.210542 0.0102621 -0.19377 -0.190095 0.00829817 -0.198124 
-0.180064 0.00644498 -0.192886 -0.166241 0.0066786 -0.197319 -0.239539 0.0143827 -0.200275 
-0.16818 0.0111197 -0.0215817 -0.149211 0.00602465 -0.194907 -0.237365 0.00663805 -0.192314 
-0.220289 0.00745906 -0.191861 -0.201502 0.006241 -0.191628 -0.170976 0.00733254 -0.188388 
-0.19764 0.014487 -0.195949 -0.192818 0.0109742 -0.0593629 -0.197657 0.0140281 -0.230056 
-0.158435 0.00520462 -0.190007 -0.143308 0.00529268 -0.186382 -0.134018 0.00884581 -0.189269 
-0.24495 0.0068935 -0.185466 -0.228876 0.00526286 -0.187183 -0.206773 0.00724379 -0.181598 
-0.191268 0.00802464 -0.184003 -0.179369 0.00801922 -0.182999 -0.223334 0.0124973 -0.181315 
-0.166296 0.0134268 -0.181655 -0.217072 0.00509481 -0.178446 -0.172371 0.00782122 -0.175841 
-0.158234 0.00711042 -0.180081 -0.146459 0.00738947 -0.176648 -0.136564 0.00579122 -0.178865 
-0.236122 0.00819726 -0.18033 -0.178984 0.0119496 -0.041304 -0.244881 0.00714145 -0.174922 
-0.226184 0.00612026 -0.17405 -0.204046 0.00665039 -0.171764 -0.192675 0.0066995 -0.172503 
-0.182593 0.00851408 -0.173014 -0.215199 0.0133736 -0.172895 -0.153801 0.0131256 -0.173011 
-0.137409 0.0122926 -0.171255 -0.236325 0.00700363 -0.168938 -0.212711 0.00491853 -0.166301 
-0.175433 0.00687585 -0.166194 -0.164666 0.00856309 -0.169509 -0.155378 0.00796354 -0.164576 
-0.145448 0.00796138 -0.166729 -0.132286 0.00711877 -0.162644 -0.22947 0.0146633 -0.0802953 
-0.2137 0.00606614 -0.0189924 -0.185764 0.00620611 -0.163158 -0.24497 0.00727914 -0.163792 
-0.222306 0.0110148 -0.166028 -0.211489 0.00443475 -0.155839 -0.16897 0.0109732 -0.159417 
-0.141995 0.00648841 -0.157358 -0.205323 0.0100885 -0.161962 -0.178747 0.00986814 -0.156822 
-0.236338 0.00866414 -0.158351 -0.228245 0.00583737 -0.151903 -0.188108 0.00573698 -0.153437 
-0.159804 0.00792474 -0.155602 -0.244875 0.0145966 -0.155765 -0.22035 0.0104308 -0.156213 
-0.197845 0.00614427 -0.156611 -0.220295 0.0145218 -0.146754 -0.231471 0.0134877 -0.146211 
-0.130856 0.00507622 -0.148091 -0.243354 0.00564873 -0.148297 -0.217315 0.0050016 -0.147732 
-0.179114 0.0111116 -0.146725 -0.169605 0.0056882 -0.148693 -0.159842 0.00700578 -0.145318 
-0.149051 0.00766474 -0.149437 -0.156059 0.0147231 -0.192709 -0.210053 0.0142085 -0.228248 
-0.225753 0.00511719 -0.141257 -0.211224 0.00542462 -0.139702 -0.198916 0.00694293 -0.146102 
-0.145853 0.00786544 -0.139529 -0.135872 0.00787639 -0.138215 -0.185492 0.00631929 -0.0233796 
-0.163858 0.0139187 -0.215221 -0.229859 0.0135313 -0.065423 -0.244948 0.00458784 -0.135333 
-0.235676 0.00566769 -0.139305 -0.187565 0.0053272 -0.143426 -0.17233 0.0112636 -0.135587 
-0.219598 0.0123055 -0.135182 -0.155865 0.00565479 -0.136137 -0.226076 0.00658838 -0.129042 
-0.215922 0.00753016 -0.127061 -0.207563 0.0104982 -0.13171 -0.183451 0.0097202 -0.134659 
-0.154218 0.00562749 -0.126238 -0.132142 0.00474779 -0.128595 -0.245 0.0128354 -0.127661 
-0.179345 0.0141927 -0.0238777 -0.194432 0.0109163 -0.135358 -0.16383 0.00597464 -0.129506 
-0.145642 0.010518 -0.129009 -0.235901 0.00848876 -0.129094 -0.226974 0.0059318 -0.118794 
-0.200016 0.0127157 -0.125445 -0.188629 0.00495353 -0.127098 -0.171943 0.00550731 -0.123662 
-0.217866 0.0130036 -0.0468992 -0.134742 0.00983354 -0.00321791 -0.225963 0.00667219 -0.00427029 
-0.167129 0.0143318 -0.12236 -0.242391 0.00694892 -0.119647 -0.203136 0.00508593 -0.118021 
-0.161919 0.00469165 -0.118724 -0.212254 0.00481908 -0.113518 -0.148701 0.00814454 -0.117746 
-0.138671 0.00830803 -0.121806 -0.231944 0.00569129 -0.109097 -0.180332 0.0142776 -0.1196 
-0.172391 0.00829937 -0.113683 -0.130088 0.00807891 -0.109953 -0.237004 0.0138681 -0.112276 
-0.221835 0.00514651 -0.110185 -0.194048 0.00480118 -0.113186 -0.219649 0.0149153 -0.223519 
-0.244932 0.00757833 -0.109584 -0.207582 0.00569459 -0.1035 -0.187909 0.00945772 -0.104218 
-0.244925 0.00972874 -0.0474071 -0.156809 0.00634723 -0.110258 -0.147327 0.00739129 -0.104502 
-0.21716 0.0110389 -0.103523 -0.19923 0.010784 -0.10684 -0.244544 0.00673765 -0.00941728 
-0.139988 0.00815414 -0.111893 -0.245002 0.0075794 -0.0972392 -0.235169 0.00820424 -0.0989315 
-0.224369 0.00868952 -0.0956057 -0.167747 0.00724589 -0.101031 -0.131777 0.00959057 -0.0989179 
-0.214084 0.0134893 -0.184991 -0.161769 0.0141004 -0.0962454 -0.187777 0.00467885 -0.0952967 
-0.177249 0.0077209 -0.0945992 -0.154172 0.00763465 -0.0954271 -0.234129 0.00875087 -0.0888862 
-0.166246 0.00848032 -0.00746339 -0.211981 0.010694 -0.0949339 -0.197263 0.00698501 -0.0974495 
-0.141032 0.013771 -0.0998321 -0.215858 0.00686689 -0.0856902 -0.203116 0.00796394 -0.0880616 
-0.166102 0.00633408 -0.0897181 -0.136319 0.00654302 -0.0905311 -0.244459 0.008722 -0.087225 
-0.225983 0.00588499 -0.0837512 -0.176799 0.0100497 -0.00320204 -0.145548 0.0114031 -0.0911429 
-0.145243 0.0136921 -0.202791 -0.188578 0.00497812 -0.0845297 -0.173347 0.00870248 -0.0831108 
-0.151412 0.00642109 -0.084435 -0.14027 0.00716258 -0.0799403 -0.131414 0.0121379 -0.0800323 
-0.244997 0.0128663 -0.077293 -0.209364 0.0133624 -0.0817017 -0.1628 0.00642524 -0.0801478 
-0.203522 0.00569893 -0.0193576 -0.225094 0.00753868 -0.0736342 -0.215288 0.00612551 -0.0757666 
-0.196179 0.0050284 -0.0777408 -0.151108 0.00700441 -0.0713769 -0.235323 0.0106589 -0.0732936 
-0.184382 0.00585272 -0.00982599 -0.171961 0.00739786 -0.0715338 -0.24403 0.00665896 -0.0692903 
-0.203509 0.0138652 -0.0729734 -0.188301 0.0118886 -0.0682599 -0.137843 0.0114227 -0.0705494 
-0.137877 0.00486253 -0.0126275 -0.140964 0.0148727 -0.181913 -0.161889 0.00739414 -0.0690542 
-0.198931 0.00676766 -0.00915203 -0.150361 0.00589346 -0.0139428 -0.217256 0.00560422 -0.0659294 
-0.200879 0.00499637 -0.0687474 -0.180755 0.00729993 -0.0614587 -0.166758 0.00564607 -0.0572701 
-0.154495 0.00575184 -0.0609382 -0.212118 0.0069563 -0.00742004 -0.170694 0.0137361 -0.0630242 
-0.160548 0.0135867 -0.0588843 -0.19335 0.0109422 -0.242774 -0.142658 0.00727708 -0.0214353 
-0.235879 0.00485971 -0.0608974 -0.207122 0.0065357 -0.0610553 -0.140252 0.00778248 -0.061475 
-0.245001 0.00613492 -0.0569341 -0.225895 0.00547881 -0.0604117 -0.224756 0.00648022 -0.0503 
-0.201173 0.00616448 -0.0499724 -0.192162 0.0102449 -0.0485395 -0.158579 0.00689932 -0.0511916 
-0.148693 0.00601252 -0.0526759 -0.136452 0.00505178 -0.051722 -0.216574 0.00894446 -0.0564082 
-0.208236 0.0132371 -0.0496223 -0.184169 0.0142055 -0.0531564 -0.174702 0.0107094 -0.053554 
-0.23566 0.00569079 -0.0489497 -0.217539 0.0151729 -0.0101564 -0.167929 0.00609267 -0.0471256 
-0.142843 0.0134304 -0.192367 -0.206863 0.0147662 -0.0390718 -0.223911 0.00712617 -0.0399446 
-0.21162 0.0065599 -0.0424375 -0.197557 0.00616883 -0.0404949 -0.159823 0.00749641 -0.041067 
-0.148109 0.00978686 -0.0433094 -0.137907 0.00533318 -0.0402996 -0.233948 0.00750669 -0.0392653 
-0.177452 0.00712648 -0.0169485 -0.171627 0.00615044 -0.0378043 -0.243165 0.0079676 -0.0331192 
-0.187805 0.00671054 -0.0331185 -0.164376 0.0055968 -0.0309219 -0.135926 0.00647838 -0.0294432 
-0.228785 0.00656769 -0.0303461 -0.217542 0.0142186 -0.0367375 -0.19293 0.00846008 -0.0169729 
-0.154347 0.0137092 -0.0339284 -0.144257 0.00991332 -0.0339701 -0.218026 0.00765628 -0.0288851 
-0.205806 0.00660664 -0.0290065 -0.196019 0.00815701 -0.0267968 -0.151722 0.00567182 -0.028334 
-0.235916 0.00687989 -0.0233009 -0.188681 0.0139798 -0.0399453 -0.177925 0.00636748 -0.0300329 
-0.224263 0.00769122 -0.0175689 -0.245033 0.00573411 -0.0194073 -0.158969 0.00748686 -0.0191407 
-0.232683 0.0130713 -0.0550116 -0.226505 0.0147726 -0.109126 -0.161791 0.0143002 -0.232065 
-0.150497 0.0127569 -0.184459 -0.140983 0.0137111 -0.0493796 -0.222332 0.0145689 -0.0872875 
-0.174477 0.0123729 -0.234883 -0.171373 0.01343 -0.22537 -0.154659 0.0141357 -0.0777113 
-0.19204 0.0147196 -0.0855998 -0.201878 0.0146657 -0.0573366 -0.244995 0.00600111 0.000609255 
[...]
POINT_DATA 4227
FIELD FieldData 3
id 1 4227 int
3492 3065 1317 99 2208 525 3930 2215 2638 
871 1078 3215 1341 1786 3905 3483 5 1337 
1477 484 3034 3467 1834 3472 445 3898 2693 
1779 538 2218 3489 878 39 3543 3460 1311 
1796 1330 1325 876 586 451 3190 2184 3029 
2217 2597 2628 1344 12 1483 1366 2209 3063 
1014 3927 1757 3187 492 22 474 3056 3926 
1797 3053 3484 8 3074 3495 3485 177 450 
62 1761 3025 2202 1339 3486 3624 3946 4047 
3055 1345 1350 47 531 1800 2216 880 2176 
1921 606 3059 3057 869 2207 464 2625 535 
3079 1758 1842 925 3112 1420 3545 2736 1778 
1791 3128 1342 38 36 3465 162 4034 2641 
1363 2263 1032 468 1348 2632 2212 910 37 
40 3469 2177 2631 3938 3461 2256 488 907 
1915 154 3922 2199 1837 1467 3134 2694 2236 
454 3491 63 54 1338 926 3931 4050 1310 
466 10 1775 2621 6 921 462 1406 1793 
3051 59 2634 1906 1801 3068 3947 3995 3044 
1756 2220 1362 1788 2195 2201 2305 2602 3037 
2764 2647 2649 2644 2752 879 1357 3071 3893 
3464 2732 3130 602 1781 933 52 900 913 
3894 1849 3159 486 3195 3951 2183 1358 3532 
3635 3 877 1 1751 2755 1019 3490 2646 
1838 1054 924 1313 3630 1911 996 961 2198 
3459 1753 3932 1759 3030 1900 3506 2196 3076 
2336 1352 3982 966 1795 55 1904 4030 2295 
1371 2299 2181 1351 1340 1950 4 3054 3120 
2648 3502 1365 1408 3992 2756 1346 3028 2645 
452 3047 2699 2223 875 3026 3050 2643 3542 
1361 3908 2620 489 490 3078 473 493 169 
220 1510 41 634 2642 2635 1333 3923 182 
3940 2698 2664 3147 1512 951 467 3032 3897 
3929 3899 883 9 3919 902 1347 1798 3631 
3177 1356 3049 1750 1777 176 3544 483 476 
889 516 1908 1379 2251 3236 1393 1396 3158 
923 2723 512 548 1470 77 1785 51 3202 
991 2 3041 30 3928 3229 2617 953 2670 
3146 2650 1813 1061 4073 519 1397 2204 3917 
3148 4009 3480 94 931 625 1947 653 505 
935 3971 3153 42 896 3520 3145 211 3097 
3141 193 219 1938 3906 3968 1528 2194 185 
4083 3537 1381 17 3918 3093 952 33 3975 
496 620 2637 2248 88 91 92 470 43 
2611 3579 2652 1934 3973 86 2239 2722 4094 
2235 2374 60 1080 523 3228 3518 68 84 
3513 947 2363 199 216 225 2660 1767 2254 
937 4106 449 3955 3645 1384 3952 187 3535 
2653 3979 66 463 950 1501 888 948 1373 
3962 2226 32 1329 1376 515 1807 25 3087 
3536 886 2654 2669 1087 2615 3970 3039 1822 
3534 2783 217 2240 2253 3099 955 3913 3474 
940 891 2244 2677 1370 1820 190 3110 1963 
1071 3538 944 1830 4091 2229 561 3048 2241 
1378 984 2232 2665 1382 1809 1823 628 2378 
3910 3527 638 3081 3104 2614 1336 1764 3517 
929 4024 3666 3533 3082 2678 1389 1811 571 
90 2666 1816 1327 2724 3478 1862 2675 71 
509 520 3657 4017 1063 2673 1392 1335 507 
954 459 559 3098 1334 1500 1516 206 1766 
3644 2768 518 2281 1429 939 1514 1390 884 
930 2186 3109 27 3230 1951 1962 3242 3523 
2769 3539 3528 3953 1771 34 1768 3080 3967 
1769 514 1821 2658 1772 3569 4111 75 1817 
3525 932 3090 3481 513 1815 567 3103 3476 
1423 79 1928 1808 85 1770 3964 4097 3976 
3516 3959 500 3092 2383 3972 4084 69 72 
2228 3046 2613 1372 28 3083 2227 2633 3106 
1383 1755 4053 4066 1792 1003 7 67 96 
3551 1354 3482 4057 1783 901 1856 1312 596 
480 2314 2182 1476 917 487 4033 3024 2178 
3950 3180 3958 3466 2629 3069 3628 3038 3033 
922 2640 2312 908 11 912 2627 911 2197 
3070 1400 2309 2604 3902 1321 872 58 2277 
546 475 4004 3095 909 1774 465 2606 2601 
2636 2607 3511 3925 2221 1353 3471 4082 3936 
2746 1794 2200 1923 1375 2321 1762 3504 2339 
491 1022 3603 1349 1044 3896 46 181 1924 
3949 1320 2180 1883 915 898 914 881 1322 
1416 905 142 1010 2211 2598 3463 899 2599 
873 3186 49 3643 2639 3196 45 448 3086 
1784 1787 3036 3163 1790 2600 1360 35 1411 
2341 2334 3487 3189 3508 3115 1401 1898 15 
3944 3521 510 3510 2624 3924 3892 2219 74 
1752 3903 2185 3108 3468 3935 3994 2679 3031 
594 1865 3943 2328 1479 446 444 2758 2205 
89 3503 2623 2325 53 590 1031 906 1343 
477 1359 874 2210 471 481 581 3182 3035 
1413 485 498 2333 2622 50 904 453 608 
3061 1355 2379 479 16 868 558 2668 215 
2353 3561 1316 3064 3470 2189 3493 4071 890 
1443 2656 1391 945 4026 2626 218 23 3904 
3522 3524 2672 2667 1395 2804 2243 3978 2250 
4080 2193 3530 1776 3477 938 3101 3957 3052 
1069 3671 2225 1763 3043 2661 3094 1062 916 
4076 3969 893 21 887 2676 64 501 1331 
1937 194 224 643 3091 2657 126 495 2280 
2234 3088 1812 1388 3961 3111 1380 2233 949 
3963 3912 1810 2291 3107 2190 1326 2791 506 
1433 2609 24 2610 521 19 3708 3512 1377 
2230 1879 3529 2188 2191 1871 18 2342 2231 
128 882 456 95 3213 3531 494 3911 2707 
2293 503 934 2663 3045 3921 3960 2252 1318 
1422 894 3980 457 4074 3915 460 2238 3475 
3966 2224 3578 3085 227 3570 3540 76 2608 
2192 927 499 3515 3916 2349 4104 1827 1394 
461 1386 29 1828 2674 4013 1833 3981 956 
1819 1878 895 2708 4015 2612 2242 3479 1385 
508 1824 3914 1520 942 1328 1826 3965 1511 
2203 1475 1374 2655 3100 3144 1060 2809 511 
458 3907 1367 892 1051 2651 2179 3473 4000 
149 3599 2762 1324 48 604 3604 98 601 
3164 4039 3627 1026 2728 158 3988 1854 3987 
1461 2042 1415 3557 919 3169 3598 155 150 
1016 4158 482 4001 4064 1839 529 447 2329 
3760 1035 1552 1403 1009 2754 2680 2738 1023 
1922 2687 174 3942 3891 2301 4041 1040 978 
61 1448 3639 3560 3552 3616 1412 112 3728 
1012 2462 3993 4058 573 3133 3496 2760 2605 
3761 2603 183 574 1021 3998 1899 2324 3937 
1789 962 1038 714 1894 3298 2730 2259 1037 
3201 3193 967 1532 4187 576 2757 3075 3623 
3547 170 163 3077 1896 2311 4173 1462 151 
2759 3022 2697 3171 3895 3556 1913 2275 3113 
3129 4036 1901 973 588 977 1446 957 1619 
3258 968 2316 4067 4043 3602 3173 156 3302 
2206 3554 600 3125 2686 1888 108 3176 1464 
3462 2731 528 3592 2387 4190 2696 4003 2761 
109 572 2690 1027 2266 3205 3184 3131 145 
738 1314 105 1988 1850 1891 2272 1024 592 
2396 4038 2320 2753 603 1484 605 2701 2307 
544 1995 1535 167 101 1041 3181 3121 295 
595 3310 2267 575 2700 2734 3948 3127 3300 
3188 969 545 3555 3615 2695 2803 3174 2340 
1765 1887 3558 116 1482 2725 618 1886 1419 
3605 1013 532 4061 4172 2213 3590 3985 2274 
2344 1409 3692 3608 3625 587 539 1471 1430 
2685 903 4051 542 1851 3984 2268 1058 533 
3027 2889 1043 3553 1867 2771 2326 1472 2763 
3611 1905 3168 2351 3595 1036 555 1857 1029 
614 3218 3559 2023 1912 584 613 1637 3308 
1039 1450 3160 1453 2308 3170 1449 1451 2806 
2009 1884 3607 82 3612 1006 1399 2367 4007 
2702 1085 577 1437 2742 191 1097 129 4069 
1536 745 963 3058 337 976 4205 1454 2822 
110 4055 184 198 1917 3114 3690 3688 2688 
3676 3733 4029 2276 147 639 175 196 3167 
3233 4078 2258 3610 1315 1405 186 2306 1418 
623 3122 1445 4046 4049 1402 1903 1782 1890 
1592 4194 599 1028 2466 2749 472 2269 4171 
3220 4006 4087 1957 3567 3633 3154 4132 3212 
192 80 1048 3192 2890 202 975 146 3209 
3241 1864 2740 1428 3574 2786 2922 3105 2292 
223 1042 2779 3649 3364 2630 4090 1944 2354 
222 2290 1522 3219 1495 1188 4014 2282 315 
327 3594 124 2286 2369 209 123 3716 3207 
4223 2382 3781 3665 2706 1646 4212 2366 1179 
3784 3333 342 965 2775 1050 2368 3222 1935 
630 2793 122 2916 1991 3206 2278 1067 635 
3235 4150 4008 3138 2507 2187 1070 3673 565 
1868 2050 2503 636 2780 100 570 3137 2380 
2481 3711 136 1513 1490 4020 2717 1926 4216 
551 257 203 609 2294 2288 1942 208 1804 
1506 3791 3663 646 329 563 2352 3641 2721 
2781 1081 1047 4079 121 140 2718 3648 1426 
3360 3223 568 1497 2792 221 321 3703 3771 
3571 552 4018 554 1432 2662 983 3954 229 
2425 2345 1872 1438 197 113 1059 641 2356 
1431 2703 1990 3585 936 1427 3237 1057 4022 
2245 941 2777 1202 616 3221 1876 2801 1889 
1955 3653 200 3783 3659 1505 2785 135 3216 
1966 644 3632 20 1927 3139 1941 4100 4086 
1435 3587 1077 2237 3140 647 778 2720 3656 
1488 3577 3646 127 617 2772 2249 1442 640 
1000 2283 1493 2347 1436 502 1082 189 4012 
3634 2937 1515 3136 207 213 2807 1056 997 
1933 3157 992 3586 1508 2355 2359 1492 1079 
619 138 2068 143 1638 989 2074 1943 4095 
3238 1459 2358 1518 3576 31 137 2086 1491 
2782 1498 1131 2370 1527 2795 1956 2348 3583 
2796 1946 1502 1002 2712 2794 1960 946 3669 
2907 631 1949 1863 3909 1959 2501 139 2711 
615 3670 1961 2787 3661 2805 3214 2505 2285 
556 566 3658 131 1439 726 627 1065 268 
990 3647 3211 1509 648 622 1940 4023 2350 
2279 1368 550 4101 986 1877 2386 1504 522 
4028 201 159 3956 2776 2357 4025 1052 1831 
4088 2373 642 3668 1473 1572 3617 4016 1932 
2778 3142 1086 637 2808 130 4107 3102 2709 
3650 4092 928 1499 4048 1455 2337 1803 526 
579 3126 13 3933 2302 2464 152 3062 2214 
870 2317 469 1018 3183 1410 3654 598 3119 
4068 4065 3986 3494 3619 2040 2264 1486 4060 
308 178 2397 3118 1447 1754 180 1882 144 
3562 589 1907 3197 959 1015 57 1034 103 
2331 1157 4037 306 1918 1480 4108 537 1468 
541 1799 1030 612 3606 2681 4002 1011 2991 
2322 2398 4031 1163 1749 740 3729 1852 3565 
1100 1914 610 1841 2376 3614 578 2020 1844 
2470 172 1414 2733 44 3596 3996 1845 1858 
3124 2692 1902 1897 173 1452 597 3509 2744 
1853 281 585 3939 3620 117 524 2861 918 
2821 4035 70 530 2257 1843 1617 1444 3990 
1096 675 583 1893 3609 2255 2403 2407 1417 
2691 245 3709 2914 660 2084 4062 3250 3613 
1456 2343 2726 3629 4045 168 761 1760 1332 
652 1885 593 1840 239 1848 2682 3172 2766 
3191 1004 2041 2271 553 1117 3281 2270 2327 
2727 960 346 885 3166 1920 3116 1109 543 
971 2487 179 1579 1846 3622 3067 3548 1909 
3618 504 2260 1017 4042 974 2330 3983 2310 
970 4117 2265 1005 607 157 1870 4099 3175 
3217 3563 1053 1861 3185 2284 2616 3672 102 
118 2773 1074 2788 3566 1407 93 654 4040 
1565 1802 1573 3234 331 4109 1210 1654 982 
3662 1895 1387 204 4198 2261 1211 1659 1425 
125 1141 1832 1424 1948 3224 3149 988 2419 
2287 4103 3573 120 3572 1046 980 995 1874 
1805 757 2841 1083 3040 1925 3203 195 4027 
994 3582 1025 205 1953 2300 981 3204 1836 
2719 4139 228 2384 3652 698 2364 2847 1869 
1494 3231 3636 2361 3143 2298 549 2246 1064 
626 1434 1881 2497 1873 78 3568 2913 4089 
2704 633 2297 629 3642 4081 1489 651 1123 
2784 3135 632 65 1441 1369 2056 3227 2247 
3575 1945 1525 212 656 1073 748 4011 3096 
1965 2774 1875 2002 3526 943 3581 3084 4213 
2799 4085 352 3155 3519 1066 4112 455 3660 
1119 1084 2415 4227 133 2710 560 4075 3589 
1524 4215 1198 1122 2705 3588 3240 3920 2714 
4102 81 2659 1075 649 4110 1496 1880 2713 
1825 695 4098 1001 562 2790 4136 1049 2375 
655 1930 3156 998 3655 134 1526 214 694 
1517 4155 2671 2362 1564 517 3208 2802 1954 
4077 1814 3194 1194 2939 83 3977 645 1076 
569 4010 987 1866 1582 1465 3252 285 3746 
2044 2824 3294 1584 3422 1696 2273 4005 3254 
3303 2012 2684 1577 97 1137 2434 3263 2875 
703 3740 2871 2323 2013 2767 248 3262 1170 
3161 1581 1595 160 2453 3328 2814 1544 4163 
251 291 2905 1610 964 1855 1110 2037 2810 
1706 4164 1093 3794 2313 171 1604 3319 4188 
668 3726 161 4070 4121 2014 708 3266 3253 
2408 2862 1985 3261 2019 3730 3323 2389 3752 
1398 1007 669 711 240 710 1936 233 367 
2026 3749 3679 3313 4114 2902 4192 2873 2335 
2564 2318 3686 107 1588 3753 3989 3330 3293 
2895 2683 2816 2765 527 2879 1148 2034 1598 
1969 2036 232 3997 979 1892 1149 663 3732 
3322 104 297 784 4032 2448 2864 111 2035 
3846 1615 1602 3737 2262 4166 2008 1547 4118 
1611 1919 3747 2894 611 274 238 1982 1976 
1983 3751 2828 4238 244 3734 3132 289 3198 
1094 273 3754 1158 1596 736 2404 3727 3326 
3165 1140 2735 3745 3257 1222 2028 2449 733 
2452 1245 1108 165 4054 2457 2435 3742 2886 
2823 3309 114 2338 1008 1089 265 4182 3546 
3757 671 4169 1542 1138 3684 2468 3420 148 
1474 280 727 2454 4167 2461 2866 2092 1586 
1134 723 231 1668 4129 3296 2015 2878 1970 
1208 287 3246 3317 1583 282 2433 3248 1162 
314 1540 580 4183 2388 3318 166 1205 2393 
304 4052 1478 2445 3683 2739 3321 1984 1466 
2394 249 1033 2834 3621 301 1146 296 279 
2874 661 1601 2737 713 283 2467 2304 2090 
3295 4195 236 1088 2883 4294 2813 2829 381 
3838 277 1481 1641 3758 1154 309 2831 1971 
1156 4127 1593 341 1160 1529 2859 2022 2868 
1458 2751 1538 3259 821 164 3199 2891 4189 
2817 2877 3200 2045 3682 4131 4141 2519 385 
540 250 4287 293 716 2881 4184 3418 1457 
2080 2436 1576 3410 3597 3117 1166 1169 2459 
1973 2896 2332 2870 2437 3694 3292 1910 1605 
1981 1585 777 300 1609 2088 728 999 4226 
2508 3264 828 4119 1167 759 1113 4093 2167 
3795 2089 1608 1143 773 3278 3275 3273 2925 
1534 2098 4220 3332 658 1101 1974 1967 278 
1657 2319 2024 2479 2903 3451 3407 4320 319 
259 3151 2429 3685 1571 423 1126 4295 2846 
2930 2927 1558 2850 2064 1136 1095 349 1992 
1421 1213 272 680 2899 332 2854 1994 624 
2085 3700 678 2054 4230 4200 2934 267 3340 
3707 4138 687 1916 1603 1072 2917 2060 2003 
2079 335 1939 3871 3152 3790 781 4072 1124 
2001 3336 2426 2488 3640 3764 3702 235 2420 
774 3349 4152 1181 3773 2474 688 1247 2485 
1556 330 3270 4156 767 3226 2421 4063 3889 
4203 2910 690 2385 3277 2833 3637 443 2109 
2418 1132 4221 2173 3788 3362 845 1238 1195 
2837 3714 2414 1118 2716 2798 765 1651 4236 
350 3338 1206 2512 1653 1677 340 679 764 
1567 1674 4325 4202 1859 762 1212 3354 1998 
2051 775 1203 328 770 271 4019 270 2908 
3274 1723 1503 1649 226 2070 132 3370 210 
3356 320 2416 1627 2494 1190 4224 1286 4148 
2513 3768 2797 2923 2935 2067 2062 1214 2158 
852 4210 1129 1487 2926 1300 4143 3225 3823 
382 2595 3801 324 2057 1574 2901 2427 3804 
1200 1201 779 2431 2842 2510 1177 345 318 
322 862 1562 1193 4318 317 4151 1628 1185 
4233 3718 2372 2410 1630 1215 769 2928 4144 
2789 1952 347 1507 1658 692 4229 2377 3796 
1121 4199 1199 3447 2506 1655 2535 1639 1997 
3638 2912 3701 3436 985 2061 3769 3359 333 
2078 3286 3785 1570 2478 1112 4096 2853 348 
344 650 2103 1209 1958 763 3667 3361 3664 
372 3779 3272 4142 755 1559 2058 3269 2371 
264 355 3150 3704 683 1128 4206 2006 2365 
3836 1566 3549 3287 2381 255 3423 1178 1523 
1440 2865 1092 2844 4218 693 4153 3288 3162 
4159 4196 386 1972 3601 2432 3413 1717 1267 
4113 4176 3721 4186 3600 3564 2884 1688 1150 
1835 3723 298 705 1103 2451 3687 1135 3697 
702 3755 1986 3372 1404 1174 2743 3756 4165 
3251 3301 2750 4168 3991 3731 1099 2440 2442 
4122 3626 3693 2315 725 3260 2729 3324 2888 
4126 1698 2745 665 1090 2872 3291 3306 662 
2819 3249 730 1600 3744 972 1521 2303 106 
3591 958 1460 719 3304 4191 2524 2446 1548 
1591 3312 709 286 2954 4145 4115 670 1463 
720 3674 534 734 311 1161 1530 731 1539 
1485 4120 1589 1578 1968 1929 4174 241 2867 
4177 1975 4105 3316 814 3329 2071 1105 3307 
1665 2880 2405 1531 305 3762 2021 246 2471 
1731 3379 2456 739 4181 4056 547 3681 1142 
1551 3763 1173 3689 2860 3750 1107 188 3232 
3593 2876 2990 2018 2447 3290 1847 3265 1711 
2007 732 115 536 677 4185 3743 3695 2892 
4130 310 3280 1537 290 1632 1133 2444 4312 
2458 672 2741 2472 4243 2039 4059 4197 3325 
2465 4135 729 704 299 1590 2818 3677 2811 
3774 1168 4162 3255 2441 1469 1599 247 2402 
674 2473 2689 722 2812 3178 3719 582 4207 
3353 338 404 1197 2748 4149 4193 3710 4257 
2296 2046 3824 3799 3331 1626 3584 2043 2938 
2852 3705 3821 2882 1977 2532 3691 2455 2460 
712 2360 4044 2715 1102 1068 1644 3334 3698 
1165 2289 1183 1563 1176 2838 684 3798 2770 
2915 1192 3343 2502 697 4161 2498 2066 754 
744 3245 256 2504 839 2005 419 1115 4225 
1620 253 686 4237 380 3352 2904 4211 993 
1568 4231 3271 2463 691 119 3772 3279 2428 
3806 153 3706 3999 3775 1621 4147 564 2500 
1553 316 4157 1724 4146 1196 696 2856 2424 
3243 2933 681 2154 3369 2900 425 1045 743 
3284 1629 141 1623 3239 2918 3337 2069 1648 
3371 4137 1656 3759 1652 3346 1575 1625 2511 
1640 1184 3276 3256 3713 3778 1560 1297 3580 
766 2843 3365 1860 4154 3651 1996 3358 1636 
3712 756 3363 3283 2514 1633 2489 2906 1055 
1114 3819 699 1650 1645 2053 1631 334 2052 
621 557 1120 2929 2055 2059 3267 2509 1289 
2800 1647 2076 1999 2346 326 3888 2845 2027 
2087 1642 4234 1931 3720 4222 266 3449 2049 
3803 3350 2164 4228 2919 303 3366 254 3828 
3341 4204 689 2065 3786 1130 343 2047 1276 
401 1597 1661 3850 3383 3809 2048 4279 2543 
2152 2983 2099 3378 4179 2979 2950 1541 2898 
2144 363 1265 3244 2825 1673 230 2391 3739 
2135 788 276 3839 1989 1152 2552 1543 1275 
1256 3289 2031 3404 2565 1660 1980 2970 1262 
810 4178 3424 2126 395 3416 3843 2940 3829 
2406 1546 2548 1277 2025 831 388 2134 438 
1978 4251 4247 2550 2143 1670 1219 721 700 
2544 2138 3735 357 2121 2011 364 3766 657 
3305 811 1269 706 2094 4273 3860 826 815 
2400 2401 2145 3856 3374 807 2561 1226 1218 
358 3380 4250 3382 2542 4276 2827 1224 398 
3297 2128 3377 666 1171 1606 2539 4275 1252 
813 812 2132 2133 3810 2527 1690 2560 4249 
830 1106 4128 3400 833 288 2973 4293 707 
1155 408 786 4255 4284 3426 737 1671 2830 
724 2952 1669 1229 787 2974 2971 3384 1707 
1248 1709 2897 1258 1227 2521 3376 827 4125 
1145 2966 4297 2438 387 3813 1278 3678 1594 
2546 411 1217 3406 3395 2887 2559 3851 399 
2863 4302 2893 825 2537 1549 4291 3355 2107 
390 313 3327 1533 2469 2531 3858 2118 3807 
1250 4281 3840 822 361 409 1697 3865 389 
2141 3414 2987 3724 1663 3833 4285 2129 2032 
396 2978 1175 3018 2120 4307 790 412 2136 
252 2941 1613 2526 4286 715 1263 2995 2515 
2010 3417 1260 356 2399 1104 1718 806 3415 
4298 2965 2557 717 2982 2981 4116 2096 3812 
365 3311 3808 1225 1223 1713 403 1701 1091 
1708 2986 2985 3866 2826 1699 1720 2855 369 
1545 3458 3428 795 4290 797 307 3857 2114 
3848 393 2450 820 4328 2139 2832 2885 2869 
410 2097 3320 664 1283 4242 3427 673 3680 
4289 2967 823 2949 3834 2122 785 397 3811 
237 2858 1712 3408 1693 1257 1098 1702 3852 
3315 1685 741 1666 1246 1259 801 2528 3373 
2984 360 1687 2156 3399 2994 1686 1561 325 
2112 819 4270 2104 3875 3432 336 3003 866 
3385 3792 2100 294 2911 4123 1622 4272 1274 
441 849 1557 2157 1305 1741 375 2549 3457 
1237 1740 1233 4263 1204 1681 3815 837 431 
2840 840 2161 4317 2909 2412 1240 1726 2585 
435 2149 1555 2075 4331 3890 850 2976 1744 
1189 2836 859 2587 383 1230 865 3014 1993 
4232 4259 427 851 3268 3345 262 2110 4219 
2101 857 2077 1732 1236 2395 2174 2480 3867 
804 2491 1295 3002 3437 3021 855 1304 4326 
1207 768 1293 3800 4306 422 2920 3454 799 
847 2490 2588 1719 2573 3715 1282 853 413 
374 323 3787 2534 1728 2529 860 3439 1180 
2484 3351 2148 432 1242 4201 1747 2961 442 
1679 2839 3782 1308 794 1675 3864 434 2422 
3770 2582 3386 1299 2004 430 846 370 428 
2533 3429 2959 1290 2486 2172 421 3012 4323 
2496 1722 353 3818 4332 376 3438 2955 1292 
1294 4319 1116 3802 2146 2482 1733 1735 3435 
2170 3877 3015 750 3776 414 2590 1287 3339 
2580 371 685 802 1298 3717 416 2083 2417 
2932 1239 2476 3017 3010 3861 4208 2589 1279 
4303 4021 1288 4314 2150 2569 2584 3433 3388 
2072 2411 844 3446 2102 1737 749 1291 436 
269 1111 2594 424 3870 1738 258 3453 3876 
3886 2583 2851 2848 2577 1296 2936 1244 2475 
1281 1284 2567 858 2155 3825 3434 4265 4322 
3805 437 1624 2000 420 4262 800 3011 418 
3398 3019 3456 3883 3445 3430 3016 3444 1730 
2568 1682 1235 1729 4239 3391 2171 2159 3390 
2147 3448 2153 1684 3872 3450 4260 3455 3880 
3004 2993 758 3777 3397 3879 3882 3699 793 
3441 4282 834 4261 400 2124 4246 4253 3412 
3314 2038 384 3837 2029 407 1268 275 2523 
1695 1667 2996 4245 4283 2017 2137 2392 1255 
2945 2977 2988 836 3849 2545 1703 1266 2117 
3409 3854 3299 832 4274 4133 2115 2972 3402 
3748 1151 718 2033 2556 2747 4254 1700 2541 
1251 2963 4280 4292 1692 3832 3842 2989 3403 
2175 1270 2517 1664 2553 1704 3741 1172 2947 
1705 4134 3844 2095 1153 1271 1710 292 1715 
1550 2942 243 2130 3247 2140 394 3853 3738 
4244 2943 2563 2547 4240 2125 829 302 1253 
2439 3736 1979 2390 3375 3859 659 3381 2116 
816 3873 1228 4278 234 2142 2969 1187 2093 
1580 1662 782 391 4160 1139 1272 2518 359 
1264 2562 2980 3881 783 3847 3425 864 3405 
3831 1607 3675 1164 4124 4241 2815 1221 4288 
284 1254 4301 3855 2127 2820 2944 824 1616 
2536 1144 842 1249 3421 2948 854 1672 838 
2558 4296 835 4308 1587 3368 780 1691 3722 
1694 2520 1689 368 1987 2956 809 440 4299 
2131 792 2951 2016 405 3725 3885 2946 402 
2443 4277 2975 796 3841 1716 406 2968 3845 
2123 2030 392 1220 791 1261 1714 3835 2409 
3884 2169 1614 2522 2964 2953 362 3389 2958 
4269 3394 1643 2921 3347 848 2413 1241 2596 
808 4256 1678 3443 1683 2106 798 3820 3789 
2957 3344 4170 2483 3814 2165 1725 4305 701 
1216 4217 1742 2992 415 2554 1618 3419 676 
4324 3817 760 1554 803 354 2430 3440 2499 
1303 3357 3452 2423 4327 3005 3797 2081 339 
2960 3874 1569 2579 2108 772 4264 4316 263 