# vtk DataFile Version 4.0
Generated by LIGGGHTS
ASCII
DATASET POLYDATA
POINTS 4258 float
-0.245023 0.00673812 -0.245022 -0.228003 0.0069319 -0.244797 -0.208134 0.00852704 -0.244181 
-0.198151 0.00673139 -0.242804 -0.160628 0.00946143 -0.244639 -0.150701 0.00604125 -0.244998 
-0.140789 0.00749194 -0.244904 -0.219664 0.0124613 -0.245001 -0.19198 0.0145773 -0.244987 
-0.176971 0.0123622 -0.244573 -0.236617 0.00921498 -0.240282 -0.236518 0.0147135 -0.118051 
-0.179532 0.014149 -0.0452822 -0.1889 0.00572307 -0.238691 -0.183877 0.0139424 -0.0668457 
-0.245004 0.00778296 -0.235035 -0.232921 0.00637825 -0.231435 -0.212107 0.00597125 -0.232329 
-0.17189 0.00737547 -0.23634 -0.163271 0.00640281 -0.230468 -0.154427 0.00513867 -0.235001 
-0.138519 0.00657234 -0.235164 -0.222849 0.0147646 -0.235702 -0.206239 0.0128796 -0.224906 
-0.147066 0.0120834 -0.235513 -0.243495 0.0084684 -0.225172 -0.20109 0.00313283 -0.229079 
-0.182496 0.00977912 -0.224937 -0.149437 0.00808482 -0.225772 -0.138885 0.00675247 -0.224382 
-0.229792 0.0133529 -0.225035 -0.219892 0.0114261 -0.226758 -0.192155 0.00894231 -0.228747 
-0.172347 0.0121848 -0.225657 -0.193699 0.014858 -0.0881232 -0.23472 0.00517251 -0.221643 
-0.214374 0.0102043 -0.218257 -0.201659 0.00365908 -0.218721 -0.191705 0.00308107 -0.219343 
-0.158216 0.00747151 -0.220642 -0.18509 0.0063357 -0.0131717 -0.133136 0.0140046 -0.219925 
-0.225468 0.00749226 -0.218174 -0.181022 0.00785868 -0.214061 -0.170396 0.00714622 -0.216971 
-0.138918 0.00874687 -0.21255 -0.242649 0.00936625 -0.215178 -0.233779 0.00634734 -0.211672 
-0.161844 0.0120462 -0.21241 -0.149748 0.0112866 -0.216259 -0.244822 0.00844857 -0.205383 
-0.21963 0.0071181 -0.209971 -0.206518 0.00445945 -0.208966 -0.190695 0.00542177 -0.209105 
-0.153977 0.00763615 -0.207315 -0.152738 0.0145004 -0.00860321 -0.173478 0.00990466 -0.20741 
-0.19579 0.0139451 -0.210411 -0.23511 0.0035029 -0.200315 -0.196064 0.00838031 -0.200424 
-0.144102 0.00759787 -0.20287 -0.134489 0.00756914 -0.200073 -0.141204 0.0136788 -0.00243113 
-0.204527 0.0133577 -0.202905 -0.182969 0.0091286 -0.203762 -0.163263 0.0117491 -0.202461 
-0.220053 0.00993663 -0.198832 -0.209102 0.00826781 -0.195626 -0.175202 0.00493163 -0.198856 
-0.148983 0.00662809 -0.194116 -0.203355 0.00796607 -0.00725078 -0.215289 0.00982217 -0.0120847 
-0.180562 0.0148735 -0.0905487 -0.229239 0.00841324 -0.19355 -0.171894 0.010071 -0.190851 
-0.138048 0.00838353 -0.190772 -0.244998 0.0119351 -0.191644 -0.202625 0.0139629 -0.189439 
-0.192938 0.00902323 -0.18892 -0.156339 0.0129584 -0.191519 -0.15412 0.0139658 -0.0622887 
-0.237515 0.00651365 -0.187802 -0.219999 0.00688964 -0.184719 -0.204092 0.00612076 -0.182124 
-0.182227 0.00699451 -0.187637 -0.163005 0.00643115 -0.187568 -0.151241 0.00921994 -0.183099 
-0.244536 0.00635112 -0.180193 -0.18591 0.0037598 -0.17863 -0.169809 0.00933936 -0.180812 
-0.159848 0.00988664 -0.178022 -0.130903 0.00860152 -0.180045 -0.230266 0.00834692 -0.181149 
-0.195492 0.0081623 -0.177442 -0.160918 0.0111893 -0.00205727 -0.14092 0.010827 -0.178277 
-0.237314 0.00646093 -0.00690741 -0.238758 0.00641241 -0.17132 -0.227716 0.00692308 -0.170029 
-0.215636 0.00690979 -0.175688 -0.179328 0.00619363 -0.169218 -0.136434 0.0061463 -0.170521 
-0.225785 0.00735554 -0.0165317 -0.224059 0.0143365 -0.175785 -0.208611 0.0133533 -0.171478 
-0.17912 0.0142999 -0.175407 -0.166452 0.0148085 -0.172304 -0.14736 0.0100534 -0.168962 
-0.211387 0.0061381 -0.165089 -0.200156 0.00486471 -0.165868 -0.189237 0.00884299 -0.167077 
-0.157328 0.00939171 -0.16787 -0.244975 0.0135415 -0.167943 -0.218671 0.0129335 -0.167069 
-0.145007 0.0143303 -0.146775 -0.2449 0.00635399 -0.158536 -0.221768 0.00750453 -0.159212 
-0.19369 0.00783769 -0.156659 -0.167402 0.00985056 -0.163063 -0.158942 0.0061925 -0.157832 
-0.149195 0.00533692 -0.159988 -0.237591 0.01298 -0.160719 -0.188825 0.00760729 -0.000421582 
-0.147748 0.00622093 -0.00586544 -0.132334 0.00488214 -0.158072 -0.207711 0.00844591 -0.156027 
-0.17538 0.00970597 -0.156091 -0.159757 0.00588426 -0.0106298 -0.213494 0.00484068 -0.00254662 
-0.180835 0.0132617 -0.111986 -0.165979 0.0114574 -0.153005 -0.141873 0.0108685 -0.155623 
-0.217873 0.00498388 -0.149911 -0.205578 0.00589192 -0.146617 -0.189211 0.0106076 -0.147781 
-0.149064 0.00471544 -0.149781 -0.24494 0.014036 -0.151137 -0.234098 0.0110113 -0.14947 
-0.200081 0.0145996 -0.151275 -0.178656 0.0120137 -0.145962 -0.132827 0.0133677 -0.150903 
-0.244409 0.00719132 -0.143148 -0.215518 0.00652761 -0.139032 -0.165465 0.00826406 -0.138915 
-0.145328 0.00363245 -0.1398 -0.226193 0.00627358 -0.144515 -0.207823 0.0142954 -0.13932 
-0.198345 0.0092495 -0.140561 -0.194476 0.0139044 -0.220325 -0.15513 0.00909888 -0.142731 
-0.136132 0.0109888 -0.14168 -0.235021 0.00656901 -0.138567 -0.204195 0.00442238 -0.133935 
-0.189604 0.00697334 -0.136245 -0.179899 0.00495222 -0.138328 -0.17536 0.0125334 -0.132913 
-0.142524 0.0147931 -0.134994 -0.195873 0.00306723 -0.128536 -0.170237 0.00311869 -0.129963 
-0.155403 0.00599091 -0.127887 -0.144991 0.00714195 -0.12903 -0.134721 0.00761754 -0.132087 
-0.243431 0.0104576 -0.130803 -0.234319 0.00692881 -0.127554 -0.18384 0.00695407 -0.127478 
-0.151174 0.00667873 -0.0156965 -0.245003 0.00916944 -0.121015 -0.224477 0.0118856 -0.125859 
-0.207135 0.0147801 -0.122521 -0.194961 0.0134494 -0.12259 -0.20487 0.013889 -0.21458 
-0.170768 0.0126657 -0.110467 -0.228217 0.00366093 -0.115183 -0.191365 0.00440922 -0.11942 
-0.181666 0.00450553 -0.116759 -0.17158 0.00392386 -0.118375 -0.161291 0.00800623 -0.119426 
-0.142066 0.00507215 -0.119707 -0.131818 0.00470689 -0.120887 -0.216134 0.0087997 -0.116577 
-0.150812 0.00991884 -0.119767 -0.138376 0.0139329 -0.116761 -0.206761 0.00684054 -0.113173 
-0.134969 0.00621904 -0.110055 -0.241633 0.0139511 -0.109408 -0.244964 0.00605789 -0.104241 
-0.234467 0.00623858 -0.107071 -0.198766 0.00454056 -0.107627 -0.177021 0.00506989 -0.107766 
-0.166484 0.00348697 -0.107531 -0.15643 0.00598854 -0.110035 -0.147518 0.00766962 -0.103839 
-0.224488 0.0088797 -0.106994 -0.213994 0.00753979 -0.106236 -0.188359 0.00516649 -0.10779 
-0.139923 0.0146542 -0.103225 -0.219958 0.00642286 -0.0981404 -0.206182 0.00398518 -0.100611 
-0.229518 0.00930956 -0.0983497 -0.197155 0.0143854 -0.103183 -0.170688 0.0119695 -0.0999894 
-0.243619 0.00519628 -0.0201474 -0.244587 0.00492594 -0.0937963 -0.211989 0.00857446 -0.0924986 
-0.202316 0.010386 -0.0907008 -0.189516 0.0084595 -0.0983763 -0.178844 0.00650069 -0.0967668 
-0.143761 0.006182 -0.0923627 -0.133602 0.014838 -0.244993 -0.241401 0.0103579 -0.084946 
-0.232428 0.00618588 -0.0889076 -0.188365 0.00607243 -0.0876095 -0.174421 0.00485943 -0.0875941 
-0.152864 0.00642255 -0.088023 -0.134345 0.00814641 -0.0878241 -0.195615 0.0137074 -0.0045273 
-0.222473 0.0137728 -0.091823 -0.158838 0.0146075 -0.0882967 -0.233319 0.0109414 -0.079074 
-0.218345 0.00724396 -0.0848932 -0.198093 0.00905532 -0.0812988 -0.157712 0.00390822 -0.0795764 
-0.142501 0.00596313 -0.0809662 -0.180817 0.0134785 -0.0789742 -0.171182 0.0112208 -0.080537 
-0.24419 0.00994713 -0.0753295 -0.188381 0.00726225 -0.0768469 -0.178315 0.00411051 -0.0748556 
-0.222105 0.0132843 -0.00549747 -0.216766 0.0121905 -0.0762972 -0.207115 0.0126473 -0.078954 
-0.173974 0.00739288 -0.00799425 -0.163689 0.0128932 -0.0741267 -0.130874 0.0148631 -0.0776462 
-0.234855 0.00837162 -0.067284 -0.225236 0.0102764 -0.0710276 -0.1961 0.00420031 -0.0684189 
-0.171848 0.00794754 -0.0678236 -0.159458 0.0051702 -0.0693846 -0.143047 0.00691784 -0.0708121 
-0.132973 0.00764103 -0.0709446 -0.244979 0.0140558 -0.00752239 -0.232565 0.0108866 -0.0232452 
-0.209523 0.0127436 -0.068552 -0.151886 0.0117305 -0.0717703 -0.244836 0.00571948 -0.0635497 
-0.226281 0.0094805 -0.0605601 -0.213568 0.00575573 -0.0626607 -0.184297 0.0035762 -0.06163 
-0.192901 0.0123122 -0.0629209 -0.164462 0.0130053 -0.0632622 -0.175212 0.00866401 -0.0184304 
-0.133516 0.0119595 -0.0602301 -0.236146 0.00773251 -0.05723 -0.202228 0.00796241 -0.0611019 
-0.158653 0.00859525 -0.0551044 -0.147276 0.00711578 -0.0576285 -0.209271 0.0140675 -0.0572276 
-0.176227 0.0128574 -0.0599749 -0.200457 0.0133033 -0.233369 -0.229303 0.00585435 -0.0496535 
-0.214957 0.00544619 -0.0527639 -0.194672 0.0030253 -0.0542285 -0.179131 0.0068253 -0.0524515 
-0.151247 0.00807976 -0.0484321 -0.140433 0.00453947 -0.0477959 -0.130382 0.00597248 -0.0516564 
-0.244994 0.00765421 -0.0525267 -0.222142 0.0131517 -0.0522463 -0.188235 0.0114106 -0.0540644 
-0.169635 0.00499237 -0.0550286 -0.165122 0.0122922 -0.0233861 -0.242155 0.00492956 -0.0433284 
-0.219263 0.00656834 -0.0437248 -0.172976 0.0065537 -0.044568 -0.162335 0.00933517 -0.0458504 
-0.238059 0.0124784 -0.0150254 -0.202472 0.00963956 -0.0474244 -0.193619 0.0129124 -0.0437475 
-0.206336 0.00679908 -0.0176553 -0.229523 0.00882261 -0.0396747 -0.179369 0.00885312 -0.0361039 
-0.152991 0.0110467 -0.0370679 -0.140096 0.00689712 -0.0379789 -0.138972 0.00822724 -0.0160524 
-0.168792 0.0119468 -0.0371644 -0.19406 0.0148706 -0.016028 -0.244963 0.00735622 -0.032484 
-0.200473 0.00515925 -0.0356612 -0.16103 0.0081236 -0.0318867 -0.23681 0.0129884 -0.0342493 
-0.218053 0.00930566 -0.0340753 -0.189736 0.00879087 -0.0352385 -0.144514 0.0149947 -0.0334587 
-0.226265 0.0056322 -0.029119 -0.2093 0.00868281 -0.0273602 -0.192356 0.00746159 -0.024568 
-0.182314 0.00747464 -0.025951 -0.172276 0.00694405 -0.0292301 -0.152798 0.00886454 -0.0261761 
-0.142842 0.00816519 -0.0253273 -0.136218 0.0055243 -0.00593754 -0.130358 0.00942176 -0.0991446 
-0.244998 0.00348552 0.00035541 -0.220031 0.00721563 0.00513124 -0.199609 0.00781161 0.00260842 
-0.193755 0.0139821 0.0644779 -0.152195 0.00520411 0.00714854 -0.142118 0.00503313 0.00262776 
-0.132168 0.00540223 0.00348895 -0.239315 0.0125133 0.000807429 -0.229062 0.0105158 0.00112082 
-0.171918 0.0131376 0.0113878 -0.177896 0.00869656 0.00118999 -0.165441 0.00557736 0.00545803 
-0.150262 0.0137677 0.00196681 -0.240376 0.00723358 0.00926864 -0.230917 0.00395484 0.0103589 
[...]
POINT_DATA 4258
FIELD FieldData 3
id 1 4258 int
1341 1786 2638 3898 474 1921 3891 1774 3489 
1003 3034 3532 3036 453 1924 480 445 1783 
484 469 482 2681 917 3927 1477 3930 1337 
8 3631 4066 3498 2215 3187 2217 1408 2178 
3065 3483 3950 3024 516 3610 487 3460 4004 
919 879 922 3180 3190 1354 2182 2627 3922 
454 3635 2216 1800 911 1420 529 2750 1401 
475 2606 1750 2185 47 1353 1448 2604 3032 
905 3053 2176 4001 1779 1761 3070 1325 3508 
3038 2634 909 2208 477 608 3466 912 486 
492 3988 444 1796 206 535 67 3035 62 
2256 3061 1413 1316 590 3926 2641 36 2214 
2177 4034 1338 2603 471 1345 96 39 3938 
2195 3077 1778 3946 2222 3919 2336 3624 1310 
1793 3047 883 1411 1321 3462 3931 899 3461 
3059 2207 53 904 1467 465 63 448 2636 
1445 910 925 2197 481 181 1791 3504 1348 
1339 3163 602 546 926 966 918 1349 3134 
2314 1762 1837 594 2644 46 10 1031 871 
3079 881 3471 877 1756 3130 1418 163 1346 
2263 3548 2629 3128 1355 3469 1362 2198 3195 
2752 2746 2339 2649 3893 1781 903 3115 1898 
3944 591 3116 3929 3 1352 3078 1416 2180 
52 3933 1342 3463 2699 1884 3985 162 2205 
1759 2309 3485 872 2621 868 581 2755 45 
2200 1315 1849 3542 3071 3992 3147 3558 3592 
2211 2639 3899 55 1852 2647 3608 874 3104 
1787 3607 1357 2598 2599 961 3630 1005 462 
3932 3076 3491 1019 2196 2645 1784 451 3947 
3028 1753 1340 3935 875 3186 446 1795 74 
22 3033 3060 3923 2756 3892 38 493 1838 
3940 467 3510 4049 3468 1356 1905 873 2698 
1365 3069 41 473 3506 3182 3030 3050 490 
3521 50 2620 2223 169 908 77 3464 1802 
3973 218 1895 1908 2 935 1393 2179 3470 
2605 1794 89 3949 916 2240 51 3086 914 
3493 1371 81 175 1359 3229 519 2652 1776 
30 4026 1379 1470 3044 34 3978 2723 3936 
3520 3963 1528 3965 2349 2656 3236 498 3081 
933 2617 4080 2667 1330 3052 3971 511 1069 
4015 3093 512 4082 1491 17 3917 4073 923 
1332 43 3148 1328 2250 890 3918 2672 211 
2804 2235 953 3145 4094 1367 1074 896 938 
1423 943 33 2225 4076 1823 3221 1397 1501 
1516 2679 3955 215 499 931 3480 1767 2378 
136 1331 882 2374 2670 3099 75 19 1373 
1827 4104 2662 2661 23 1763 21 4083 3957 
64 3094 1424 2615 947 2233 2280 4024 461 
496 2653 886 3524 888 225 936 3910 3571 
561 3522 1814 4106 992 1833 2244 3479 3517 
1511 3570 497 3907 887 1500 1807 3110 628 
84 3518 1374 3956 1809 549 3097 501 3534 
2229 2665 2237 76 509 2356 2242 1499 3516 
1389 4017 944 3912 1376 1828 2677 3975 1862 
66 981 3043 3529 3523 637 891 3968 956 
559 1087 3952 984 27 1063 126 518 456 
3098 20 1830 1334 940 1387 494 2768 1382 
3964 2783 520 3539 3538 72 2612 2188 216 
2651 463 3213 2660 1377 2243 2230 1383 1962 
3103 3092 3153 930 949 3960 3533 3578 71 
567 1874 32 2234 3967 1768 1051 2614 3091 
4074 95 500 3972 1821 1329 1824 3911 4097 
1327 1769 952 939 1392 3046 2227 1390 2610 
1934 2238 1326 3100 2192 3481 2232 3961 79 
1815 1871 3083 1391 932 1520 1766 2613 3976 
2189 457 3959 1386 2674 460 3528 523 934 
1071 2228 2609 3204 3540 28 3966 85 945 
3085 942 69 3906 1368 3535 80 3916 2657 
2202 1366 1792 4033 2738 3543 2597 3494 5 
897 1777 99 3502 1313 1904 538 1842 3942 
2209 586 3928 2210 3054 7 3473 3063 2640 
3497 3492 3897 3472 1757 3902 40 1311 2218 
464 1755 3074 3598 2628 1350 3025 2184 606 
54 2601 3487 489 3495 3051 3486 1752 907 
3465 531 3068 901 15 3509 2325 1797 1363 
1915 2736 466 2183 450 1312 1032 488 597 
3894 2212 59 3049 468 1775 3027 906 37 
880 1801 1358 3171 915 2602 4053 58 1798 
2328 3057 1923 3925 1322 3544 9 198 2201 
3941 3482 2764 2744 1758 3189 3490 898 1044 
3037 3943 3026 49 902 2732 3896 913 1351 
924 2219 921 483 1788 1010 3120 1844 2623 
3159 2199 3459 3108 1406 485 2646 2600 3982 
900 1375 1361 11 35 1006 452 2204 1799 
3904 1343 1479 29 1347 479 3994 3095 2694 
3951 2181 869 2236 2635 3903 3503 2626 3064 
1950 142 3467 2326 951 476 3055 2607 2220 
1323 3551 3029 2624 2648 1900 1751 1344 1319 
3484 876 1320 16 3545 510 2625 2221 614 
2342 889 1360 12 13 2622 3511 491 1856 
2632 634 3196 3905 176 1317 2664 3031 1911 
2231 42 3202 2630 1333 1443 3958 2659 878 
1054 25 4109 3924 3512 2637 2379 3671 3477 
2383 92 470 2643 505 3045 2713 548 1836 
1811 60 1388 3513 1813 2203 558 2669 1937 
1820 3041 449 2666 3525 1381 88 123 1785 
892 3106 948 3141 3230 2654 3537 2611 1427 
1505 3969 187 1822 1394 2247 2249 3530 3914 
1773 3645 91 515 4077 3088 2663 1497 3144 
2791 2241 3970 495 3979 1061 3101 514 3228 
3962 3981 224 1826 1384 1336 18 3048 2186 
3657 941 217 1370 3475 3526 1963 2254 1808 
2724 3111 2673 2191 2781 1385 937 3087 2248 
1764 1378 458 3084 3082 2193 2226 893 2722 
507 2671 1369 3920 2608 1930 3644 1395 895 
128 3080 1810 3476 24 1816 1770 2658 2675 
4012 70 199 2809 521 1772 884 894 1062 
94 2224 3980 1422 3953 3913 3090 3921 927 
954 517 2187 68 508 1076 503 193 643 
2678 2288 4103 4091 3039 3109 1812 3515 2633 
2655 950 1819 506 2239 194 2252 3478 459 
90 3107 3531 1335 955 2642 2363 86 2190 
1318 93 2253 3915 2650 2251 3474 1771 513 
1060 3569 3527 2676 2668 155 1455 3599 607 
589 158 1324 48 1803 1009 2317 177 3604 
4039 3627 1028 2271 3552 2730 3622 2340 3760 
112 1552 1882 1461 1035 3022 2762 2466 1447 
2693 979 2680 1026 4064 150 1922 2889 1839 
601 1841 3983 2451 1040 967 3184 1456 447 
2329 306 3056 3560 3119 2301 1410 1037 2759 
1480 3554 3619 1907 4060 3998 4058 4005 2264 
3183 145 579 2323 1483 160 1012 573 578 
714 870 4041 3686 3556 4057 1015 2331 2729 
1398 2302 526 6 541 106 1903 3937 1894 
2697 2020 611 1027 977 2462 2728 3263 4036 
4030 2327 3628 1899 596 1038 179 144 3126 
107 295 3596 610 178 2311 1468 731 4192 
3623 1890 598 111 2749 1887 156 1896 1919 
1532 1918 588 3728 1846 1948 738 2686 183 
3173 297 2757 281 146 4169 1754 959 583 
3987 3729 4194 4037 174 1888 576 612 1446 
3201 1030 957 3997 958 1471 1464 3177 3609 
2307 2265 1024 4187 4190 4108 2742 1163 3606 
530 2398 1595 968 537 108 4067 149 3692 
1022 3131 1902 1897 2695 2269 2320 1913 2305 
3124 3127 2275 525 1018 1858 1971 3165 1452 
3121 1920 1034 4171 3112 3181 2922 2258 109 
154 2274 1893 978 116 2725 3621 4038 3948 
2726 170 3984 1451 2696 3733 2700 2861 1843 
3614 972 1482 2685 3198 1885 3547 2206 3603 
4198 3590 1478 2763 3562 168 1017 4172 3605 
1466 605 1170 587 2260 3690 196 969 4062 
1029 2803 2257 102 2734 3308 3990 3618 1430 
98 2341 2310 1486 2692 3200 2213 1039 1450 
577 1399 239 3209 3062 3193 1058 542 2308 
533 996 1459 1141 3611 4 1013 3191 1637 
3594 504 1867 4078 2353 4042 3595 1036 2321 
4046 3160 2682 3205 2748 1396 4007 1004 184 
2299 2295 1917 346 2276 3613 2041 2702 1510 
2306 3058 2351 609 1415 3175 3300 1512 3939 
3612 3643 3185 3167 1405 2334 2009 1760 3625 
2731 963 975 1042 625 1400 1515 1100 1210 
3778 3993 2758 3654 585 4035 118 2319 151 
1790 3220 3908 3577 3212 3188 1495 3158 195 
1865 1048 965 2507 1832 1889 2266 1473 2278 
1916 4071 618 982 3650 1179 4099 3194 1407 
65 1947 3217 113 1052 197 4029 212 2505 
3218 631 1603 3574 3567 4006 2369 761 4087 
2292 562 3333 3579 3241 3639 2290 3235 4009 
3146 1524 985 4110 2790 2714 980 125 1565 
1517 695 2481 653 190 2779 137 133 2503 
620 100 1957 3207 4079 185 630 1428 3716 
127 4008 2061 2194 2366 642 153 315 1526 
641 3977 1878 635 3673 3137 1080 3222 4150 
3703 3242 1426 1990 2706 228 1935 3663 221 
1881 2703 1502 4020 4025 3668 1432 1659 1868 
205 1951 2282 3646 2300 647 2296 2704 2719 
2709 1925 757 2291 3203 2717 3672 2384 121 
2788 3666 1831 1438 1943 570 4081 321 4227 
3641 3585 2720 3223 1057 4011 1047 140 4089 
3653 3783 552 1573 1059 651 2362 2710 210 
1966 83 135 3234 4112 2841 3642 1441 3636 
997 2345 2074 2297 1955 3583 2357 1805 569 
3227 3240 1574 656 563 3239 2293 1442 1523 
1429 3589 1492 2716 991 1000 568 1075 2800 
640 1522 3669 134 2787 78 1436 213 2364 
619 207 1202 2616 571 1046 649 3214 3519 
2375 2246 1435 1372 2347 3581 4092 2789 2705 
202 2937 4028 1490 929 1527 1946 994 1434 
988 2279 2807 3211 1439 2707 3142 1514 3909 
3152 1869 3136 4100 82 4022 1928 189 1079 
2359 4088 1056 1002 1077 3225 2372 2769 3102 
1866 1949 3155 556 1880 2371 1817 31 1065 
3576 990 1433 557 1498 3658 621 3670 4084 
1082 1001 143 3096 2795 2712 1086 3667 522 
201 3536 227 627 648 1956 4102 1877 138 
698 4136 2808 1961 4023 2350 268 1489 554 
2386 626 1825 550 2501 998 1927 2805 1449 
182 1016 1465 1403 1476 61 964 1854 1454 
3557 2760 2324 2470 3172 1444 3629 2042 3620 
1749 604 1020 4070 2337 1845 1023 3125 3133 
1011 3245 2270 3075 2396 3164 152 3166 4068 
1014 613 2315 3298 2316 3118 2687 962 574 
3721 3616 1789 1460 3559 536 600 117 110 
245 2761 1404 186 3602 1909 2272 740 2408 
745 2267 4002 3178 2312 3496 3122 528 4065 
974 4047 2754 3067 161 3113 973 3895 4031 
1892 1462 4054 970 2743 2338 1579 2733 584 
572 2631 1782 2691 4003 1968 3996 4061 4043 
3129 3555 172 3591 472 101 173 575 595 
3174 308 1463 1850 4040 3615 4052 2753 105 
2387 148 599 1117 1085 544 4045 545 1853 
1409 593 165 4048 222 1851 592 2701 543 
1857 539 1 3169 1840 652 3688 1043 1314 
2690 2261 1765 976 1417 157 580 2822 2255 
603 1521 4051 2343 2407 3561 3565 3170 3709 
2023 960 1834 2344 147 2741 180 2766 3168 
4119 1472 1419 44 159 1912 3553 1901 2268 
129 1078 4055 2740 524 527 3197 1891 2277 
4000 103 971 4050 2259 2727 1041 532 4115 
1103 1484 1906 2333 3761 1536 167 2464 1402 
1412 1886 1883 2332 1453 885 3665 2782 1870 
1936 3995 1437 1440 4069 553 57 654 623 
1123 3617 1188 1995 2771 3233 1914 2368 122 
3584 3105 2688 1504 1944 220 4014 1932 2419 
1864 4013 4234 1876 1053 1033 2780 1067 3649 
622 1131 1475 3138 1506 655 2287 983 2784 
2294 987 1959 3219 3206 1942 2415 2718 2352 
130 1991 2425 1431 2916 1804 124 1926 1084 
3231 1124 1953 1081 3208 4010 3637 2355 1619 
1945 993 616 3216 2792 208 2348 1064 1960 
3954 632 2298 200 1873 1494 3662 2918 229 
1649 3224 3140 2773 629 4212 2370 4098 2772 
2801 2777 139 565 502 1941 617 1879 2086 
340 3135 214 1073 3582 2284 4018 633 645 
3660 2373 2283 2799 1863 4096 3575 946 3784 
2785 3708 1508 1066 1055 778 1965 989 1872 
1496 4090 1958 1518 3586 2002 3588 455 3156 
2907 4085 4107 219 615 774 2794 566 1049 
3149 644 203 1380 131 3648 4075 2711 4111 
2285 639 2802 3573 986 2778 1211 1488 560 
1509 1191 3661 928 3651 1070 4101 3632 4027 
1493 3633 2322 209 2286 192 636 2245 564 
2358 3143 3568 3566 3634 3215 223 120 2793 
1457 2376 1861 1119 3040 3587 2708 3656 204 
638 2289 3659 3647 3238 3139 1933 3157 2281 
2354 2056 2786 3154 1938 3791 2774 1954 4215 
191 2380 166 1986 2453 1267 3746 2882 1855 
3316 1910 1208 3252 3299 3162 1174 4164 2884 
4188 674 2886 1414 2871 3755 1981 310 3314 
1577 4180 4145 277 3680 171 3564 729 3254 
3294 3372 2011 2487 2013 1581 2905 285 97 
247 2814 663 1108 231 2403 2767 2872 2765 
4197 4175 703 725 705 248 555 723 2313 
3161 2810 4186 2683 2873 777 2468 4162 1021 
2019 4177 367 667 3151 3323 708 4173 668 
3328 2037 1973 3986 1542 3681 2879 3251 669 
2434 2817 3327 2026 3319 1093 730 3846 3740 
2318 2862 2303 660 3689 304 3763 3290 2007 
711 3322 1546 1978 2447 1548 1157 3772 3262 
662 3677 3255 4120 1533 4116 3749 2036 2014 
2816 4130 2473 4118 1929 2448 2564 4191 251 
2819 2894 232 1602 1592 3597 670 704 3678 
1611 3266 4284 1155 240 1969 719 3408 1578 
3754 1585 3687 3727 3732 1547 292 299 1530 
707 1600 311 1531 2823 3330 4117 2405 1138 
1979 3301 3304 1847 294 3730 1474 2689 3675 
3753 4141 1605 706 2444 1598 3989 293 733 
1593 4160 115 3757 534 278 2404 1149 4167 
3318 3737 1094 1982 3695 3845 1535 1168 2457 
1590 2452 2443 1165 2440 3744 1146 2071 2878 
3132 249 4182 1101 1988 3310 2459 2465 305 
1162 2863 3563 2454 2390 2811 675 732 314 
273 2874 1599 301 2445 2433 1142 2735 2028 
1090 3693 280 1134 3738 1983 2262 3246 736 
1088 3375 547 2446 727 3743 1173 1641 3758 
3593 114 1458 713 1583 119 1107 2831 2883 
2737 3674 2402 2877 309 3750 3265 2027 4185 
3317 2813 1529 246 2891 1975 1156 2046 1608 
1098 3774 279 540 3694 2751 2436 337 290 
4127 722 2826 2367 1551 3250 291 3722 3260 
4176 307 3325 2008 1160 4195 2881 2467 1617 
1139 4287 1848 3676 2084 3549 2330 3682 3117 
4174 1135 2097 734 4184 2389 2039 2827 4189 
2860 3794 2393 1539 2437 4132 3259 1994 1197 
701 4218 1102 1571 3410 3451 4105 1167 4147 
334 3340 999 2715 267 2064 2854 1736 259 
1612 2089 3334 3449 257 849 3336 3355 2914 
1977 1642 332 3256 1126 1136 1159 235 303 
4138 3795 3278 3999 687 3267 3264 3282 3280 
2382 3275 3345 2154 3702 338 2049 2455 3707 
2900 2088 253 2068 2929 646 330 2903 2504 
339 3335 755 1213 2892 2054 4152 1623 4230 
2502 756 1487 4225 2775 2485 3331 3640 1192 
2474 776 4232 3801 1128 2806 4148 681 2426 
226 4143 765 686 343 2721 3572 1650 4237 
2915 3341 2421 4222 4170 551 1682 2917 1562 
2901 1083 1503 3288 2497 4206 4200 1653 3792 
325 684 316 2847 2776 693 2420 256 4156 
758 350 2833 1130 1999 692 3719 3781 2418 
781 2416 1553 1176 3771 318 2059 4229 1939 
1198 2414 2070 4139 2933 1525 3271 4221 3706 
2935 3354 2856 4224 3828 748 650 2423 331 
3823 2109 2484 1648 1201 1212 1206 744 2913 
1635 1289 3720 2509 3710 320 4021 2062 2083 
1129 4325 266 344 3712 2346 691 2428 3803 
4154 3366 324 2429 1190 3879 1297 4019 1645 
2904 3698 2377 680 3358 1620 699 752 1300 
3350 3279 2506 317 1184 1631 1215 2919 3365 
2488 1572 3371 4236 1568 1177 4157 2067 3804 
3764 3359 3286 2912 4207 2510 2932 4137 768 
764 1630 3346 2513 3356 347 775 1185 1114 
1199 4144 746 3786 2410 3284 1998 271 141 
3796 766 2926 1560 1564 1566 2057 1655 2846 
322 742 2427 779 1997 352 3369 1626 2843 
3765 3718 2489 3700 2906 2053 269 1120 678 
2514 1658 236 326 2052 1200 2478 3337 1559 
1952 264 1996 2583 763 4155 1629 272 694 
2078 3150 355 258 1050 4153 1507 345 3785 
2000 1095 2079 4086 2511 2818 3731 244 3413 
4158 3759 3601 2824 2273 3991 2044 4196 2875 
233 2432 2896 1110 1610 2397 1972 3244 784 
1604 2012 3321 709 1586 3315 298 2812 710 
3684 1169 3176 1582 4163 2954 2870 1007 4165 
665 2747 104 3742 286 2010 1166 4121 3293 
2867 3726 2456 238 274 2821 1537 4166 3302 
2441 2828 3312 1984 3247 2739 3600 4122 739 
250 2895 408 3546 1096 724 4125 1589 2040 
1158 3326 2880 671 1222 3756 1591 1089 243 
2394 3751 1615 1596 3291 3295 2888 2990 3745 
2829 3114 287 1008 2684 3762 4181 2435 2304 
3683 2859 3249 2471 2015 2460 3626 1718 2991 
3257 2388 661 3838 4056 1485 716 4124 3199 
1538 4159 1616 1150 1097 3296 3311 2472 4183 
2022 283 3723 3248 821 1534 4032 3368 3697 
4126 188 677 3232 1133 715 1161 3307 726 
3324 404 2876 2035 1540 4129 296 164 2045 
1143 1245 4296 2018 4113 2080 2890 1632 728 
3379 3798 289 2034 1154 4131 3192 2005 3423 
385 1654 672 4149 1731 1481 2442 1147 3725 
3303 2335 3261 814 1688 720 3679 1469 3306 
1976 735 2745 1148 1835 3309 3747 3289 1099 
659 4134 3292 1109 282 3313 4063 2868 3821 
4135 702 3447 3704 3287 2167 4059 1576 2360 
3281 1974 2902 2850 255 2449 2928 2024 712 
1657 3276 1194 582 3258 1967 789 2065 300 
1025 4161 4205 3273 2939 3691 349 2925 2479 
1112 1127 265 4203 1513 4231 1677 769 697 
1205 4228 2938 132 1563 3351 3353 2164 1238 
3685 3836 1092 2934 2003 4233 242 1286 2930 
1558 1646 2797 3237 2798 4211 1644 1556 3277 
3775 2852 1068 2899 760 3580 1859 3370 2842 
3343 1643 327 1647 743 2844 323 4216 762 
1651 3349 4146 1183 1425 2910 3352 3283 2006 
443 4072 1195 767 1567 682 1132 3714 2498 
3705 4016 4210 3362 1656 3715 2069 3274 679 
329 1122 1203 270 4213 2908 690 3444 3652 
2796 263 1621 1045 2365 3769 1209 4220 696 
2492 2385 4093 1628 2431 3713 3819 2770 1860 
4199 3701 1875 1940 1633 3638 1627 4095 1992 
2361 1640 4142 2853 328 2085 3363 254 3361 
4235 3342 1181 2927 2076 1072 624 759 683 
3332 1575 3243 2082 2055 348 2381 2923 1421 
1638 4226 2845 1193 4217 420 1115 2043 4044 
3364 2050 3768 995 2051 3799 2512 4223 1196 
3814 3338 1625 2424 2494 770 845 773 689 
2001 3788 3360 3773 2837 2482 4318 382 2463 
319 333 2060 2508 342 688 1931 1639 2500 
3272 372 4238 3655 3226 2066 4151 3664 1113 
1214 3711 1609 2865 1121 1584 1989 230 2117 
2970 2144 360 1597 2048 401 1980 836 4253 
791 275 834 400 2143 2406 3739 3424 1255 
3383 3809 2412 2898 438 3810 780 718 3409 
2945 4279 3842 1266 1717 2141 1706 4179 2391 
3735 2543 2135 2950 1265 4247 395 3832 2047 
2560 3843 1268 1550 2541 2988 2550 2038 664 
1151 2979 1985 3377 2099 2123 4250 1254 2033 
2025 2972 3881 368 3849 1543 3829 2400 357 
2542 2094 2968 4245 1271 3402 1218 4243 1220 
3374 237 3855 411 788 2095 737 3382 1224 
3856 1696 813 3403 854 2893 302 3748 2145 
4292 1153 2138 807 4293 2864 811 3380 392 
826 2132 1226 1106 2825 1243 2545 4249 2561 
2133 398 1671 1712 2439 2547 2527 2438 3834 
3844 3381 4298 396 2540 812 2392 1715 4246 
3852 2521 2450 832 1246 2897 4261 3734 1217 
1253 2885 2142 2546 3848 4193 1275 1258 4128 
2858 3406 3873 4312 822 234 816 3860 1672 
2121 3253 2869 4240 3833 1709 1707 1668 2951 
1662 4302 2975 2866 3297 406 1264 2137 4244 
1669 1278 313 3858 2987 3736 1227 4241 284 
1693 3851 827 2830 1689 1262 3400 3420 1221 
2989 2956 2136 666 1714 782 1580 3847 1700 
1272 1713 2131 356 1248 1270 1664 2943 3407 
252 2946 790 1665 3018 3415 3418 796 3416 
1708 3812 2941 1970 2981 2100 4328 3865 3853 
3427 3417 393 3840 1250 399 4294 2978 2030 
809 1260 1105 2092 4289 361 2120 1702 657 
1698 412 2967 4288 2940 1164 2557 2815 410 
381 806 1690 4291 820 4285 2986 1228 402 
1663 3421 1223 2526 1694 1091 1987 403 3425 
2399 3724 2966 2124 2984 3003 288 2157 2114 
3395 2949 4290 3875 2098 1704 840 795 1587 
341 4308 1259 2953 4286 3443 2549 3431 1739 
1295 676 3458 3348 1666 2570 819 2152 2413 
2958 866 2104 2992 4309 792 3453 3805 3441 
1678 2107 2964 1230 797 3766 2839 741 3268 
4331 1240 3419 859 2165 2994 413 4259 1204 
1683 431 2087 4320 3021 3874 2538 848 3699 
1216 1741 2530 3890 2572 2921 3432 2081 1742 
850 4321 2532 1305 1557 3392 3386 380 1569 
370 2588 428 3006 2573 2160 1293 1744 817 
3391 4316 2101 383 2579 377 865 794 793 
3866 3885 3454 2149 2491 262 1732 1242 2075 
858 857 353 335 4304 2499 1290 1679 1738 
1187 1125 4332 2004 422 4202 2483 3436 3008 
3357 1207 2490 3446 4256 3396 1285 2161 1723 
2430 2920 2108 2582 3867 3777 4305 853 3440 
4327 801 2162 1180 434 1748 1178 3452 4239 
2533 436 2171 754 1719 2158 1292 4201 4114 
2148 747 2417 2924 3020 2569 1743 261 2495 
4265 3806 2172 260 2580 416 3390 2458 1675 
421 439 750 2535 685 1287 3871 4266 2993 
3818 2146 2486 3826 2111 3889 3887 1733 4204 
423 1747 1745 2592 3017 2851 3782 3012 2591 
3435 2575 1624 802 3868 4303 3780 2955 426 
2960 4208 1302 371 852 3442 3878 1232 1306 
1111 2163 2072 803 863 2156 3397 3448 1239 
3816 1737 3455 3367 1186 2577 841 2475 2586 
4322 2594 3876 3398 1734 2155 3863 2493 4330 
2147 1729 2166 2567 2174 2153 798 1676 3010 
2581 3434 3019 862 3007 1280 1301 417 2529 
3456 2585 3269 3011 3817 1288 2110 3004 3883 
1730 378 800 3888 3886 4260 4263 4219 2576 
386 1661 1667 815 4283 1673 2548 1588 1269 
3412 2017 1544 1660 384 3839 276 4178 2947 
2115 2126 4254 4274 2562 3850 2963 4133 823 
1541 1256 1695 358 2122 3422 394 2523 1152 
2552 2029 1219 3399 1171 2031 2565 3752 842 
4273 2563 2539 786 3404 4276 2553 2983 1172 
829 407 2544 3841 2977 3854 1606 1137 2942 
3378 2125 364 4275 2973 241 4299 1277 830 
2093 3859 2556 3305 3320 1257 1705 2887 4251 
388 2971 825 2944 2952 2090 1691 828 1261 
4281 2525 4255 787 387 3405 2140 3376 2118 
2469 3428 390 2461 3831 2116 1225 785 1701 
1699 2096 2091 2982 1175 4301 4278 3835 1711 
717 2820 391 1607 1613 1251 2558 2127 2515 
835 409 3837 2021 2519 1545 3808 2517 359 
3741 2559 1549 2996 1283 3329 721 4280 2980 
824 783 1692 1263 4295 673 3347 4168 1104 
1670 1229 658 2832 2965 4269 362 4242 4282 
4300 4277 1594 2130 2518 2857 1276 375 363 
4297 369 838 1703 2134 1252 3813 3384 2531 
2537 1601 3857 3426 2129 397 405 810 831 
1140 2524 389 2985 3811 2128 2974 1710 2016 
3807 2401 2032 833 1145 2969 2520 1144 1249 
700 2409 1697 1716 2948 2855 1685 3815 1687 
3339 2522 2112 4324 1274 1303 2119 3884 3373 
365 3385 2151 2536 2911 4310 2395 864 1721 
837 4317 1555 3789 855 3344 839 1622 440 
808 4257 2848 2169 2139 1681 1244 2063 2173 
2836 4264 2175 1561 4262 2168 435 3014 1554 
1993 2909 3389 1233 1237 4307 3864 427 374 
3016 4123 2840 2995 2106 2997 3394 2528 4326 
2480 3770 2554 2976 354 1234 419 2077 804 