# vtk DataFile Version 4.0
Generated by LIGGGHTS
ASCII
DATASET POLYDATA
POINTS 4250 float
-0.214099 0.00850436 -0.244937 -0.19285 0.0100108 -0.244801 -0.244301 0.00294789 -0.24474 
-0.235187 0.0069838 -0.244937 -0.224992 0.00830427 -0.244998 -0.204104 0.00582694 -0.244977 
-0.174547 0.00333845 -0.245 -0.164436 0.00300943 -0.245 -0.150091 0.00297795 -0.244741 
-0.140125 0.00370164 -0.245003 -0.154728 0.010668 -0.0244989 -0.182487 0.00950033 -0.244283 
-0.130296 0.00455875 -0.243383 -0.223312 0.00703457 -0.235215 -0.195581 0.0150242 -0.235409 
-0.231461 0.0137201 -0.238576 -0.160765 0.00303188 -0.235688 -0.147182 0.00977904 -0.238039 
-0.168707 0.0119066 -0.235253 -0.210503 0.00291864 -0.237085 -0.183797 0.0058621 -0.23443 
-0.245017 0.00779389 -0.236082 -0.236076 0.00666577 -0.231794 -0.22784 0.0134919 -0.194705 
-0.205776 0.0110666 -0.234001 -0.181488 0.0128508 -0.0701102 -0.137351 0.0085786 -0.236704 
-0.215437 0.0110892 -0.226984 -0.19158 0.0134146 -0.226342 -0.228336 0.00579909 -0.224361 
-0.207028 0.00297666 -0.22758 -0.14678 0.00291272 -0.229949 -0.244967 0.0125972 -0.225805 
-0.170633 0.00928187 -0.225534 -0.157647 0.00736429 -0.225991 -0.140632 0.00727449 -0.219295 
-0.237864 0.00576788 -0.220906 -0.175918 0.012684 -0.1959 -0.194381 0.00293344 -0.00533209 
-0.205489 0.013154 -0.224079 -0.195057 0.0126549 -0.063577 -0.181092 0.0114587 -0.222406 
-0.154268 0.0108923 -0.216959 -0.132245 0.0128118 -0.212417 -0.213366 0.0109734 -0.217201 
-0.188683 0.0126088 -0.214762 -0.225855 0.00305385 -0.215115 -0.197955 0.00877424 -0.217448 
-0.179397 0.00708297 -0.213581 -0.206097 0.0109946 -0.0149083 -0.244998 0.0111993 -0.21257 
-0.238171 0.00925771 -0.195655 -0.167697 0.00305099 -0.218245 -0.21928 0.0102413 -0.0053036 
-0.198158 0.0125361 -0.207213 -0.219847 0.00840798 -0.205892 -0.209122 0.0109718 -0.207198 
-0.171921 0.00299186 -0.208373 -0.145927 0.00309426 -0.20881 -0.134709 0.00596534 -0.205281 
-0.235112 0.00335667 -0.203143 -0.156505 0.0105465 -0.245002 -0.161876 0.0120503 -0.210099 
-0.243881 0.0119457 -0.180687 -0.245001 0.00295779 -0.200753 -0.180463 0.00478801 -0.203385 
-0.170051 0.0118008 -0.204081 -0.152766 0.00874287 -0.203818 -0.199401 0.00301987 -0.193162 
-0.165928 0.00304436 -0.199761 -0.140433 0.00683489 -0.19675 -0.1588 0.0131755 -0.0125903 
-0.212913 0.00443182 -0.197715 -0.189524 0.00457765 -0.198818 -0.133256 0.0135053 -0.0614635 
-0.170175 0.00684112 -0.189214 -0.181856 0.00365381 -0.190616 -0.147488 0.00294715 -0.189928 
-0.244868 0.00301178 -0.187504 -0.233025 0.0028568 -0.190183 -0.219801 0.0105147 -0.187593 
-0.234893 0.0122439 -0.0810381 -0.192127 0.0081212 -0.188545 -0.158869 0.00541568 -0.191656 
-0.13739 0.00303191 -0.184982 -0.206816 0.006455 -0.186241 -0.151393 0.00897606 -0.183057 
-0.189953 0.0117441 -0.0040497 -0.175646 0.0103459 -0.181612 -0.198452 0.00302772 -0.181668 
-0.186164 0.00349113 -0.181502 -0.167819 0.0104255 -0.175395 -0.219509 0.00523499 -0.179124 
-0.139625 0.0126913 -0.180913 -0.153021 0.0133564 -0.173622 -0.143992 0.00559094 -0.175358 
-0.245 0.00325505 -0.17587 -0.193015 0.00489654 -0.173471 -0.179582 0.00933969 -0.172035 
-0.131952 0.00581065 -0.171502 -0.211649 0.00463431 -0.173005 -0.152529 0.00498361 -0.00279058 
-0.151852 0.00892437 -0.164115 -0.234025 0.00396537 -0.170878 -0.200823 0.002929 -0.167582 
-0.160751 0.00835198 -0.168636 -0.244918 0.00727984 -0.166715 -0.220413 0.0077061 -0.168559 
-0.206571 0.0108812 -0.162897 -0.142445 0.00300846 -0.0088508 -0.227643 0.0100014 -0.175794 
-0.219875 0.0063938 -0.157388 -0.212505 0.00293282 -0.163208 -0.191588 0.00983715 -0.162651 
-0.180736 0.0112734 -0.161332 -0.171288 0.00627338 -0.158389 -0.131516 0.00313354 -0.161886 
-0.199046 0.012772 -0.156024 -0.159806 0.00953147 -0.156935 -0.141268 0.00801894 -0.162204 
-0.244993 0.0123115 -0.153786 -0.2297 0.00627363 -0.152904 -0.236558 0.0105126 -0.159599 
-0.204951 0.00374173 -0.15563 -0.177745 0.0086237 -0.150648 -0.141648 0.00287153 -0.153772 
-0.211261 0.0115951 -0.154065 -0.186809 0.0126576 -0.152571 -0.150788 0.00672347 -0.15307 
-0.13503 0.0101091 -0.152292 -0.207334 0.00354133 -0.144718 -0.192938 0.00444845 -0.149779 
-0.168084 0.0109921 -0.147626 -0.159293 0.00294107 -0.149556 -0.143793 0.0119568 -0.137285 
-0.216593 0.00569019 -0.147816 -0.189475 0.0111928 -0.142965 -0.171786 0.00669176 -0.139309 
-0.23826 0.00710272 -0.147884 -0.225665 0.00370689 -0.144105 -0.214384 0.00298309 -0.137683 
-0.14275 0.00301218 -0.142556 -0.172774 0.0138856 -0.24454 -0.231858 0.00848528 -0.137871 
-0.198408 0.00689877 -0.141783 -0.17926 0.0132416 -0.140468 -0.15096 0.0115131 -0.144333 
-0.245036 0.00297029 -0.141869 -0.222324 0.00790734 -0.134164 -0.20564 0.0108833 -0.135541 
-0.16262 0.00665247 -0.13486 -0.130265 0.00306114 -0.134095 -0.140033 0.00527894 -0.130748 
-0.244867 0.00290952 -0.13028 -0.232646 0.00293764 -0.129611 -0.200646 0.00302779 -0.130072 
-0.184856 0.00310225 -0.132878 -0.171985 0.00663651 -0.12573 -0.152041 0.00549858 -0.136395 
-0.209803 0.00620315 -0.12744 -0.19591 0.0121497 -0.133616 -0.139425 0.00740876 -0.0203132 
-0.154795 0.0107734 -0.124506 -0.219149 0.00384648 -0.124871 -0.174607 0.00308297 -0.113965 
-0.211195 0.0144638 -0.190949 -0.238397 0.0107479 -0.125695 -0.192226 0.00839854 -0.124051 
-0.209504 0.00300663 -0.0068867 -0.151553 0.00668294 -0.0155178 -0.201576 0.00574661 -0.116048 
-0.212345 0.0110774 -0.117589 -0.140917 0.0050472 -0.119952 -0.245001 0.00530045 -0.118496 
-0.228296 0.00306717 -0.120595 -0.241806 0.0116897 -0.137286 -0.183402 0.0121947 -0.118159 
-0.17425 0.00727756 -0.0169045 -0.235004 0.0145195 -0.170076 -0.21975 0.0118533 -0.110853 
-0.236157 0.00301256 -0.114414 -0.230915 0.0122223 -0.109411 -0.18604 0.00584389 -0.110718 
-0.160325 0.00754612 -0.111275 -0.130286 0.0048822 -0.113953 -0.175408 0.0118988 -0.109384 
-0.204979 0.0122079 -0.107278 -0.169459 0.00301155 -0.10538 -0.142845 0.00297478 -0.106606 
-0.245002 0.00322176 -0.106488 -0.209538 0.0112995 -0.00130633 -0.201828 0.0102151 -0.1742 
-0.19489 0.00387282 -0.106493 -0.188039 0.0142669 -0.105265 -0.200588 0.00291398 -0.0132505 
-0.134749 0.00836019 -0.104388 -0.223925 0.0131145 -0.100999 -0.21402 0.0123958 -0.102678 
-0.235231 0.00318196 -0.102315 -0.194908 0.00783763 -0.0943945 -0.152627 0.00867747 -0.10314 
-0.239232 0.0111227 -0.00376633 -0.132125 0.00295437 -0.00773863 -0.184863 0.00679758 -0.0118988 
-0.149316 0.0149722 -0.0918774 -0.227013 0.00297217 -0.0944136 -0.185505 0.011132 -0.0960008 
-0.174444 0.0072889 -0.0971944 -0.161465 0.0080853 -0.0984964 -0.139353 0.00617539 -0.0953886 
-0.243812 0.00301588 -0.096443 -0.183031 0.0112063 -0.041789 -0.156239 0.00581715 -0.0862307 
-0.244432 0.0141264 -0.0289984 -0.1888 0.00420163 -0.0873695 -0.229237 0.0111646 -0.0891914 
-0.217694 0.00309149 -0.0906934 -0.205581 0.0028693 -0.0937347 -0.163257 0.0139403 -0.0898625 
-0.226493 0.00926557 -0.0121279 -0.177574 0.00721384 -0.087599 -0.151411 0.0145363 -0.0767358 
-0.236922 0.00287267 -0.0846779 -0.225095 0.0036823 -0.0823875 -0.166377 0.00581565 -0.0781804 
-0.21618 0.00899473 -0.082058 -0.198634 0.00697692 -0.0850295 -0.235091 0.00976528 -0.211979 
-0.131787 0.00299552 -0.0815088 -0.192513 0.00302189 -0.0766044 -0.17824 0.00304357 -0.0736111 
-0.234465 0.0123869 -0.0294853 -0.232561 0.0031022 -0.0756082 -0.245 0.00395084 -0.0100389 
-0.220724 0.00468459 -0.0715737 -0.210397 0.00369177 -0.0705061 -0.165084 0.0104998 -0.0662329 
-0.200739 0.00641427 -0.0713401 -0.142735 0.0125012 -0.0721031 -0.244837 0.00604907 -0.07014 
-0.18025 0.00387419 -0.00101298 -0.188029 0.00547797 -0.0677351 -0.147744 0.0108741 -0.0634646 
-0.185775 0.00983133 -0.0796857 -0.22686 0.0100973 -0.0604455 -0.196499 0.00289469 -0.062955 
-0.17602 0.0075643 -0.0636289 -0.141971 0.00292973 -0.0646999 -0.234933 0.00720641 -0.0662205 
-0.226344 0.0133817 -0.0705843 -0.216406 0.00959267 -0.0586179 -0.204844 0.00841806 -0.0620531 
-0.184868 0.0119029 -0.0607633 -0.14325 0.0120635 -0.111696 -0.242947 0.00334788 -0.0600505 
-0.13207 0.00298476 -0.0634192 -0.173833 0.00801695 -0.0528743 -0.235436 0.0142979 -0.0558498 
-0.201174 0.00532432 -0.0518293 -0.182721 0.00302477 -0.0502081 -0.160999 0.011196 -0.053829 
-0.152108 0.00665231 -0.0554147 -0.136091 0.00767905 -0.0537525 -0.242659 0.0115165 -0.0487565 
-0.142842 0.0108731 -0.000982041 -0.22331 0.0118296 -0.0499358 -0.192253 0.00902124 -0.0544209 
-0.162555 0.00452171 -0.00570546 -0.244833 0.00306016 -0.0431635 -0.212087 0.00309972 -0.0511707 
-0.192226 0.00622505 -0.043448 -0.147933 0.00853958 -0.0463632 -0.201655 0.00884287 -0.0417747 
-0.23182 0.00296538 -0.00407046 -0.167871 0.0127228 -0.0462146 -0.193561 0.0116686 -0.113998 
-0.157445 0.0138223 -0.0435871 -0.230957 0.00633608 -0.0463245 -0.220674 0.00376934 -0.0421887 
-0.185551 0.00292866 -0.0368819 -0.138484 0.00980764 -0.0423369 -0.23719 0.00511664 -0.0367925 
-0.244859 0.00301338 -0.0307577 -0.20976 0.00298886 -0.0405644 -0.191811 0.0132772 -0.0362962 
-0.149857 0.00301038 -0.0372155 -0.225847 0.00304042 -0.033605 -0.164302 0.0104175 -0.0371319 
-0.143345 0.0131745 -0.0326378 -0.200151 0.012339 -0.0280006 -0.136108 0.00699741 -0.0297117 
-0.235134 0.00298798 -0.0261746 -0.213317 0.0080133 -0.0327888 -0.18872 0.00461094 -0.0250358 
-0.177182 0.00576901 -0.0302031 -0.167513 0.00479704 -0.0275659 -0.157244 0.00299966 -0.0303818 
-0.159647 0.00304515 -0.0201037 -0.193415 0.00859861 -0.0171702 -0.227334 0.00758107 -0.021942 
-0.147519 0.00352816 -0.0274415 -0.244953 0.00598711 -0.0211992 -0.205949 0.00287827 -0.0216727 
-0.168454 0.012809 -0.00991502 -0.164955 0.0115397 -0.0204704 -0.183136 0.0138782 -0.0310281 
-0.234892 0.0144811 -0.0168739 -0.218098 0.00963864 -0.018112 -0.203059 0.0117113 -0.198242 
-0.194611 0.012816 -0.0760436 -0.244889 0.0122343 -0.078265 -0.214838 0.0134099 -0.0717909 
-0.146129 0.0122612 -0.226015 -0.170547 0.0120598 -0.215065 -0.226862 0.0126691 -0.161079 
-0.165171 0.0129815 -0.195476 -0.235342 0.0119538 -0.186193 -0.244775 0.0127109 -0.202282 
[...]
POINT_DATA 4250
FIELD FieldData 3
id 1 4250 int
2638 3543 1341 1786 1774 2202 1003 474 1921 
4033 1401 3898 3933 917 451 3502 3631 1477 
2210 1783 538 480 445 911 1313 961 3891 
2215 3187 487 1337 4066 3930 484 7 3610 
2178 2176 3467 871 1375 453 3190 2738 3065 
8 3484 2627 4004 1318 879 1779 2217 3464 
3922 2182 2625 2216 919 3056 922 482 3024 
471 1354 2606 1750 454 47 1325 608 2353 
2185 1420 1844 1353 2208 531 3495 3035 3053 
3485 3070 3025 177 909 492 3086 486 912 
3061 477 62 596 535 1413 39 1338 2607 
1483 1796 2336 2603 3938 4034 36 2207 2177 
3051 169 2622 3931 2632 2221 2325 3511 3624 
2195 1778 3946 3504 910 53 1310 3461 3059 
466 1775 3545 1320 899 2197 1793 1363 4053 
491 880 1321 3049 3894 448 1791 1792 46 
1348 1339 1445 63 1758 10 1467 576 163 
2314 1762 926 966 2636 3134 1346 1837 1904 
2746 881 1756 1350 915 877 3542 594 3925 
2629 1418 2644 1798 59 602 3047 16 3532 
3469 1355 1781 3079 3128 3116 3115 2764 2339 
2220 2604 2601 3471 1322 873 3548 1362 2649 
3 1416 3196 67 1356 3147 3985 3943 905 
3189 2732 908 2200 3510 1788 889 2699 3463 
872 1352 3490 3928 1884 2309 1357 2639 45 
3992 3544 586 924 1315 1849 479 2211 3929 
1787 3899 55 2621 2647 1361 2179 1900 3607 
2755 1856 3630 1784 3159 3076 3071 1759 2599 
74 1906 446 2213 22 3947 3491 1340 1019 
3932 3186 1343 1895 3028 1838 206 2698 2645 
1360 2196 493 935 2756 1358 3892 467 3030 
3506 875 41 9 473 1365 3468 1347 50 
3897 490 1396 3104 3032 3108 869 176 2620 
1950 462 1316 2223 2635 2236 902 3064 2183 
38 883 876 1924 1342 3026 3551 12 1312 
464 3466 40 3487 529 3904 3074 3941 3896 
2634 4050 3057 614 3944 2752 3060 476 3182 
469 3063 3027 1753 3982 3919 4026 1794 89 
3958 3031 3470 175 2675 3082 81 874 3949 
2664 75 3578 1828 916 3081 3936 3229 80 
2650 3044 1359 2659 923 2652 3963 1371 503 
217 2674 1470 2656 3520 4071 3475 3236 505 
3093 511 4080 4015 2617 4083 2667 2203 3513 
3052 3971 4073 1069 17 3579 1332 890 2676 
953 3918 3145 3148 2250 33 3917 1074 2235 
2225 882 1397 2679 1501 2672 499 1367 1328 
1076 938 64 4076 1823 1879 2610 2239 136 
931 3480 2670 3242 2246 3955 1827 4103 23 
1331 1785 947 2374 21 461 4104 2294 2661 
3099 1373 3094 4024 956 2280 496 2653 2233 
3907 888 3648 1505 3518 1814 886 3524 3910 
2615 515 3570 3474 66 3571 2247 2291 1833 
2244 3534 549 1500 1491 2252 3479 1807 1061 
3645 561 3912 2663 2229 3959 3952 3097 18 
3517 2237 1057 2677 628 2378 637 3041 2356 
3043 2242 3144 1830 209 3527 4017 514 981 
944 1819 3110 3657 2248 2253 1376 3478 1063 
2249 1771 2612 1384 1809 1862 1389 1808 2383 
1372 199 3087 2768 1370 3523 520 20 1382 
456 78 2243 2637 2230 3107 1962 3539 948 
1374 2630 3529 559 3098 1764 955 930 3103 
1378 2240 2188 3911 71 3080 1811 3153 2 
1377 2234 1383 27 3109 2347 1499 3964 2614 
3967 1768 2707 193 3045 952 3920 929 32 
3961 2769 3960 4074 1821 219 95 24 940 
2809 1327 939 1392 3972 567 2241 1815 1423 
3976 1871 500 2349 1816 895 512 4097 934 
1386 3481 932 3569 1391 2192 1772 3204 2231 
3528 3083 3915 2665 3966 2669 69 457 2224 
2609 3535 945 2613 2189 1516 1390 3921 3953 
3085 34 1071 3092 942 3906 1060 85 3913 
523 1335 19 460 72 2232 1824 1329 1387 
76 68 3538 517 2660 878 1369 3230 548 
3213 3671 1934 3975 2204 3530 459 936 3039 
3228 950 3048 3100 894 2657 2642 123 4094 
1770 3969 2288 1379 1820 914 2209 2597 5 
2342 1351 3489 3494 3893 2181 3034 2640 2337 
13 1777 1757 1054 3472 2277 1344 1323 1044 
1010 475 3460 3508 2628 1842 1319 3038 3180 
3493 2218 3029 3902 2256 1448 3628 590 3077 
3055 1755 1800 1761 99 2184 1752 606 181 
2222 3486 3498 489 444 1834 3927 581 15 
2214 1366 3054 2641 2736 54 3905 1345 1032 
3465 3050 904 2212 1317 468 3068 2334 1797 
597 3926 2602 488 1795 2631 37 3163 96 
2263 2626 906 3037 516 2328 1799 625 1801 
58 1349 925 3130 898 2623 485 3195 3078 
1911 921 1411 162 546 49 2180 52 591 
2198 1005 1031 2624 2648 2201 3942 1408 3635 
519 2600 3120 868 2219 1852 483 1751 3509 
634 2646 35 1406 900 3459 2598 2199 3482 
3903 913 3036 901 452 951 1905 1760 11 
450 3033 3095 3951 510 481 3950 918 3521 
1479 1912 3923 3940 2766 3069 4049 472 3561 
3503 1333 3994 907 1898 1923 2326 1311 3483 
3492 2744 1326 3914 1497 42 2205 215 77 
1802 1330 1769 3916 933 1393 2605 70 3084 
3091 1443 51 2643 3522 1528 1776 30 3924 
29 3968 3090 3978 2655 4082 1812 3644 1334 
498 892 896 43 60 558 3973 3202 1810 
1767 513 1813 2804 92 211 218 1475 88 
93 1930 3512 2678 1388 1394 3141 1826 3965 
2611 1836 1080 91 3106 3515 225 2226 142 
1424 2791 2724 4098 1763 2363 3957 1336 86 
25 1874 2662 1822 1427 187 2654 449 3088 
495 4106 84 984 3979 3962 1945 4077 3970 
3101 2190 2227 224 887 194 126 3981 2251 
509 2658 3531 2238 1511 1087 2723 2186 3111 
501 518 643 2781 2254 494 2651 937 1773 
1380 1385 3537 497 949 2191 216 891 458 
2713 463 2673 3533 2722 507 1051 1381 2783 
3516 954 941 927 1817 3476 1937 506 4091 
79 1422 521 128 2633 2608 884 1395 2379 
2666 4012 2228 2668 3046 28 1062 3980 508 
470 2193 3956 90 3477 4020 2807 893 155 
2317 4115 1476 1803 3599 1009 1035 48 1141 
4039 4063 346 447 2324 3619 2922 3552 2340 
1461 978 3622 2762 2466 1536 3122 3939 1917 
1839 1552 2696 3473 4064 1447 4070 526 1922 
2464 1854 2680 3022 3760 1040 870 2758 2329 
2451 967 1841 3983 150 1103 1026 3119 1410 
2301 2271 2276 2310 2333 2759 4041 3556 3298 
160 3560 1749 1480 654 103 714 3986 2728 
4001 1015 1412 3935 2729 102 1459 4060 1398 
536 3988 1012 972 573 2020 4057 1896 574 
179 2763 2259 977 610 144 1909 2312 180 
3733 1894 2697 3178 1023 3462 2206 1468 2727 
174 4047 3623 3173 3895 2749 1038 2327 4192 
112 3172 3067 3596 3987 3185 2757 3197 2311 
1462 731 1532 1890 598 186 612 1846 2686 
957 3729 588 4002 527 1919 3606 4031 281 
465 4035 183 3209 2761 1888 3177 156 1579 
4054 172 1446 4187 1595 3131 2265 1030 3997 
1913 3129 583 1024 4043 1464 2299 2322 2398 
1400 4190 530 1034 3692 2269 1782 1022 2307 
108 3200 4045 82 2320 1897 3124 2387 595 
2695 109 1452 2305 3121 2275 167 3181 2691 
3127 3615 116 1850 148 544 543 1920 3198 
154 4038 3948 2700 1893 3654 2753 2725 545 
3592 3603 3614 2274 2726 1466 605 3559 3984 
168 1482 599 4198 3643 2701 4172 3308 1478 
2260 3621 1853 3590 1430 3690 4062 3608 2803 
969 3562 1029 4108 239 2257 1405 3317 2341 
2685 184 3618 4051 98 3193 1450 976 1399 
2702 960 3191 542 1867 2332 3300 1058 4042 
533 61 1043 2741 110 504 2308 1637 745 
4007 3613 1039 308 3611 1004 4 4046 4000 
2748 2306 2295 3160 2396 4078 1512 129 3205 
2682 2041 3114 3058 3612 3175 3565 1453 1415 
3629 3167 1510 885 575 1899 3996 3547 4169 
1117 578 1444 1455 3602 4052 1409 2268 182 
2687 1843 3558 3170 3062 577 3168 145 1451 
3990 903 3171 1851 1857 541 4036 2750 2462 
1017 3993 1908 57 963 146 3216 198 3212 
3708 2187 1790 986 2711 1440 151 585 2278 
2319 3220 1048 3995 3188 1936 3908 195 3194 
965 1194 3158 1865 1495 1179 3583 982 1407 
2056 4087 2786 1473 3650 4227 4029 1947 3146 
3574 2802 3567 3784 1916 2507 2292 653 1938 
3154 3235 3280 1861 113 1052 980 4006 630 
3639 2290 3333 1067 185 2194 2366 3241 125 
1565 133 646 1957 315 695 3221 943 100 
1428 1517 1131 655 3137 1558 620 3716 4008 
3673 642 3703 1878 3222 228 2793 3364 635 
1804 1659 2806 4025 4150 3662 641 1881 2706 
221 1502 757 130 124 1426 205 1951 2282 
3668 2719 1925 3208 975 1506 2355 3663 2704 
3646 1081 3203 645 2788 208 570 2703 3637 
3641 1939 4081 321 2847 1033 4011 3783 1064 
1831 140 3585 190 3666 2298 1047 1438 2720 
340 200 1933 1434 2074 2370 1059 229 651 
121 3577 2841 1966 4089 2297 632 3234 1368 
552 2362 1805 3642 1442 997 210 4079 3636 
2296 562 135 2772 1073 2373 3240 1574 4086 
647 2801 3227 1429 569 656 1000 1492 1075 
2300 4107 4110 3661 2293 1526 3589 2799 3214 
2800 2774 207 4212 619 649 1055 1963 2358 
1943 993 4100 2787 991 1046 571 946 3575 
1863 4088 3632 988 1436 3581 994 2359 137 
2279 985 1572 1515 3136 1946 202 3155 3778 
1493 455 556 1573 2372 1527 31 1514 3102 
1065 617 2705 2805 1866 1496 1077 3225 3586 
3658 143 1086 3588 989 1928 1082 1880 1870 
2712 1944 621 4084 3096 2795 1049 2790 1001 
2782 227 1956 4102 1877 3670 522 694 627 
3667 1766 65 3536 4023 131 1070 3156 615 
1961 1832 2714 2350 698 1050 139 3651 1488 
268 2505 1520 1960 4028 550 2501 1524 1489 
1825 3540 2808 3909 2779 3647 1084 1056 998 
622 2375 201 1509 134 554 3211 3977 3633 
1869 3207 1872 4223 4234 1876 1953 1959 1522 
1188 1119 2286 568 1100 212 1990 1435 1025 
2789 1965 2284 4101 3954 3217 2784 2386 638 
4009 191 2380 3525 3237 1494 1941 2357 995 
1932 983 3224 2717 3215 3584 4085 3634 633 
203 3149 1949 604 1324 589 525 3604 3126 
3164 149 3620 1210 2270 1016 1845 1006 579 
2733 1486 4058 2693 1037 1907 4005 609 3616 
979 725 3118 2302 2861 3554 2760 3998 2264 
2315 3761 1402 3075 3183 3496 106 1014 1011 
3125 1903 4065 2331 3166 2009 2267 245 740 
3555 3557 1460 2316 117 600 3937 222 107 
1891 178 2754 4037 959 2272 161 3609 528 
3598 1028 973 3201 1915 4003 970 524 3113 
4067 537 3169 1887 3591 297 572 3174 3133 
968 584 3192 3258 1018 3112 607 1886 1971 
2258 971 1754 593 4061 1858 1456 4068 101 
2684 1484 170 1885 603 1882 306 2012 2694 
1314 587 1041 1036 3594 152 539 3688 1918 
3686 2734 623 532 2690 295 1902 105 1 
3605 3709 1013 1765 4048 4030 3625 592 6 
2266 1840 962 652 1417 2692 3595 2321 2042 
2261 3553 2255 2822 3245 157 613 1163 2351 
1454 4105 1472 147 4119 1419 2740 44 1078 
4040 159 1471 3627 639 553 2344 2470 2338 
4069 4055 196 1789 996 2730 2343 1449 1404 
2323 1027 974 1883 2889 2407 1403 2681 3728 
2742 3653 1437 566 1191 2671 1864 1521 2771 
220 648 1889 3672 3233 2354 618 1914 223 
3105 4022 2371 2360 3665 2688 3617 4216 4027 
560 2708 192 3218 2368 2289 2792 1053 3669 
631 2364 122 2376 2419 3566 94 120 640 
2616 1042 1954 4013 4014 2780 2287 3791 3142 
987 138 3206 213 2718 2481 2503 644 928 
3573 1441 1991 3219 3231 1935 153 1927 3649 
1498 4112 2352 2415 1124 1504 2778 626 1868 
2425 1619 1926 565 636 4109 4136 2384 2731 
3040 4010 1196 2245 1123 3587 1995 4092 1211 
564 1942 616 3526 990 329 1202 2773 2348 
3157 1955 4018 3135 4111 2777 629 118 2710 
4215 563 83 2785 4075 1873 1431 502 3139 
1508 214 3659 2377 3656 2345 3140 1066 2283 
1432 2709 1085 1079 992 3568 3238 3519 3660 
1002 189 3143 4090 3582 3576 1490 778 2002 
204 2369 1433 127 2794 2907 2285 1518 2281 
1948 557 3223 2453 1910 3731 3413 4282 158 
166 1855 2818 1986 3252 1267 244 3323 964 
3316 4188 251 3162 1157 3294 275 4164 3314 
1174 2875 310 2018 171 1414 3564 729 601 
3184 3755 2884 233 282 2044 247 2011 2767 
248 1160 2013 1610 2812 2817 2403 1981 2814 
1706 1604 677 2765 4132 367 2872 703 2313 
97 3254 2810 663 3372 1144 3328 4186 2683 
2745 2954 3753 4173 3161 2019 4177 2037 4165 
1093 2437 1021 1150 1542 3251 1835 669 702 
611 730 2026 665 4121 660 1548 2330 2318 
2862 3261 1143 3740 4196 2894 3846 2007 1973 
104 2335 3763 2448 662 3677 3255 1978 711 
4191 4166 1585 4130 238 2819 2040 4183 1586 
1547 4120 3749 232 1592 719 1155 4284 2487 
3597 3330 1578 1602 240 274 3563 3737 3730 
3687 4122 311 3754 734 3732 1688 661 2524 
2441 1598 4117 707 1589 4118 738 3772 2405 
814 1979 3989 4194 2739 4296 720 1138 706 
1600 299 4032 534 1531 733 2880 671 1982 
3165 3306 2404 3744 2823 2408 3304 3695 3253 
1149 4167 1590 1593 2035 3266 3727 1165 1988 
1535 2435 3326 1168 4182 3318 2452 3319 1089 
2821 2457 2389 4160 2829 2433 3310 305 667 
2863 675 2445 1090 1142 1146 2071 249 4131 
3845 1591 2028 2735 2465 1134 3312 277 2874 
2990 3257 3693 314 3738 3758 2471 304 2390 
736 1088 3743 1711 2262 1173 1170 3626 114 
2015 301 2905 1583 3375 2991 3774 2831 3296 
4185 2402 2877 3151 2394 3838 3295 1156 580 
1107 705 723 1458 1608 2010 1641 2813 2891 
2859 1975 2046 278 2890 4159 337 1551 3199 
290 4189 715 2472 4149 3265 246 1529 2436 
2826 1139 2367 3694 2860 821 307 3682 3250 
3325 722 231 1848 2881 2467 4127 4176 2039 
726 3232 250 4171 1208 1847 713 4287 1901 
1617 3260 4174 4141 4129 3117 285 1929 2045 
2883 3676 4184 3379 3290 732 3593 4181 280 
1892 2888 3262 2873 3322 3263 111 1969 1581 
1099 2084 3756 3723 1731 3601 2737 4180 1465 
4163 739 1972 4158 1611 2273 3549 2895 3248 
1457 2882 3259 1539 1102 3794 236 4145 2167 
4218 2393 3680 2938 1974 2449 1609 1638 2173 
255 1571 3451 1642 1167 265 119 2914 999 
1967 773 2089 2070 1612 3355 1136 259 2413 
1977 4205 1126 4138 789 2925 3795 325 4161 
1994 1159 2834 2479 4263 3707 3702 2088 2939 
1643 3256 3278 3275 3999 2079 3836 4044 4203 
691 761 2068 2934 1092 235 2149 2775 1566 
2382 1192 756 687 2060 253 2049 338 2865 
4230 2003 2154 2502 3332 2930 1556 4152 1650 
689 2064 4225 3351 2455 2915 2485 2504 339 
2426 4237 551 2721 3572 765 776 4229 4170 
2776 2043 684 2917 686 4222 1563 3349 4147 
2500 2497 4206 3655 3713 4200 443 1630 3792 
3719 2420 316 2833 1653 3768 4156 2845 4099 
256 1931 2839 2910 1132 2418 781 1130 3362 
2109 2933 3354 3271 2416 693 4202 3764 331 
3352 1198 4221 1677 1183 1553 2913 2414 2423 
1206 1289 2935 679 2842 4224 320 1201 1646 
318 2856 3274 4021 2428 3799 197 2937 3828 
3823 4325 754 2086 744 1212 1129 845 3712 
1996 2904 4016 3803 3710 1620 1190 324 2062 
2509 3338 2164 3366 270 1631 1215 3698 2067 
3365 1177 1645 2796 3279 2492 1575 2506 764 
2494 2098 4207 4019 2513 4236 1568 1998 2932 
1203 1185 347 3346 3804 3796 3283 3356 1114 
2916 2431 2510 141 3786 2511 1199 4144 271 
3767 766 762 775 2057 2926 269 4096 3819 
3284 1560 322 352 2365 3701 4226 2901 2846 
3337 2844 1626 1640 678 3718 2906 779 266 
763 1940 355 2514 2478 1952 1559 3580 345 
2053 258 1658 2853 3361 3410 1213 3785 1629 
1992 4155 3363 1120 1564 692 1635 1121 272 
1072 2489 3350 1639 2000 2837 3801 2052 3150 
264 1176 3700 4153 2912 849 4154 344 699 
2059 1507 1523 3272 743 3288 1603 1200 1648 
758 3152 2361 650 2488 3267 2568 755 2346 
226 2919 683 3286 1439 1083 4143 4233 2054 
3343 1115 330 132 701 2573 3798 1128 1997 
323 3769 3765 3447 4142 3685 3370 2427 1657 
2798 3277 1652 3444 1651 2463 4148 3788 4211 
332 4157 334 1875 3340 1567 2770 2078 1135 
1481 1101 2824 2442 1588 3746 3991 386 2023 
2461 2440 3759 710 1110 1147 1987 708 2432 
2017 1109 2397 3679 2868 1108 709 2977 283 
3244 3289 3321 1582 273 1007 4162 4197 668 
2870 3301 3745 2303 784 2827 727 2434 3721 
2879 3674 3176 2034 294 3600 1469 3684 3313 
659 2473 3689 298 1534 2871 1148 3293 1169 
1162 2564 1533 3726 2828 3302 704 286 3742 
2743 2689 2867 2456 1530 2468 3247 1546 2444 
547 4125 3291 3546 3327 824 1158 1968 1113 
3309 1577 293 3132 1615 958 2080 1474 1596 
243 309 2886 165 3751 3747 1983 115 670 
3762 4056 1599 2454 1718 2447 2811 2892 1463 
2459 3246 1976 3681 1222 2830 2446 2816 2304 
3249 2751 674 1616 2005 3292 540 716 2027 
1097 2388 2460 3683 2902 1694 3307 287 3311 
1485 2519 279 4126 1540 3750 188 1166 2036 
728 1538 2022 1096 1605 2747 3324 3697 4175 
1632 2866 3423 555 2008 2024 2876 2014 296 
4113 1133 164 1161 672 1245 1154 289 291 
1094 173 2878 1008 3281 1238 742 1654 1421 
327 3287 333 4217 300 680 267 3239 2854 
1628 3019 1576 3353 3821 1513 2512 3449 1095 
3264 2850 3336 1197 1045 3273 3334 1570 257 
2065 582 319 712 3714 2061 2929 4228 4231 
3720 3276 2923 3331 2498 2918 2797 1286 342 
4072 3691 2900 2508 2474 242 2085 2899 3282 
2050 4059 1068 2103 1127 1999 2928 1859 3341 
696 760 2001 350 3771 303 2852 3775 3436 
2006 681 1644 2066 3138 1525 3226 354 4146 
1300 2083 2936 688 1425 748 1621 3360 343 
4139 2069 3706 3345 2051 1214 2484 3711 3243 
4318 1736 1195 767 1656 768 1649 2716 2055 
2381 752 3715 2908 4210 2424 1487 2421 2429 
1625 777 1184 3358 3652 4151 3773 2058 1122 
1205 348 3371 3705 4137 1627 317 697 4199 
2927 4220 4213 774 1193 1112 3781 2385 1209 
4093 1860 1633 1503 2843 770 1958 690 326 
3369 328 2715 2482 420 4095 1655 1562 254 
372 624 4235 3638 2076 1623 3640 3342 2903 
771 3359 3704 2410 3664 759 1584 1597 2117 
2970 1989 2144 836 2141 1276 2898 3839 791 
230 4277 3739 1255 3383 4295 3809 834 2975 
2143 700 284 1703 3409 3735 2135 404 2945 
276 2099 4179 2950 384 394 827 1550 2988 
2979 1695 1152 2543 387 2983 2391 2968 3843 
2038 4245 2940 2123 3832 237 395 1985 2989 
1709 4273 1268 3811 3377 368 3849 1543 1271 
3003 3854 2550 2033 4250 3404 2563 3829 3752 
1665 1224 788 2400 2094 358 4292 2025 1720 
2963 3418 3856 1218 2095 4241 810 364 2145 
4168 2138 411 811 2527 737 3374 1172 3748 
1265 826 2124 2942 1712 2864 2545 1671 780 
813 2974 796 402 3859 1220 4251 4249 2540 
3408 1153 2825 1226 4299 2518 2132 2133 398 
2439 3834 3734 3381 2521 292 2142 3844 1217 
2438 2392 2952 4246 3852 1275 234 363 2858 
4193 1145 1715 3406 3421 408 1707 4128 1672 
397 2130 2137 4244 2965 4240 3384 3833 3860 
2093 1254 2559 4242 2969 2121 3722 3736 4281 
2951 816 1278 3412 369 4253 1580 825 406 
2140 3858 1669 1689 2987 2443 3831 2136 1227 
3851 1970 790 3847 3848 1246 782 1262 4293 
666 2131 1700 2946 1248 1270 2943 252 356 
3018 3807 1699 842 2941 3427 3417 3415 3840 
828 2982 2096 3812 1984 1708 1225 3853 2092 
3428 391 3416 2820 2949 2030 1221 658 359 
4278 399 1098 4294 2978 361 393 2893 2515 
809 785 1164 1250 1698 4288 1251 2399 835 
3741 403 820 806 1091 2517 4247 4285 1260 
1228 657 4195 4312 2100 3425 2097 3724 2986 
2526 717 4298 2450 4261 1264 4280 2985 4243 
2967 2869 1151 3881 664 4328 3426 2981 1713 
3320 1660 288 3424 4134 3810 1283 1541 4302 
2469 4254 407 357 2032 1664 2126 2539 2832 
1661 3841 2947 3297 1263 2523 1606 2537 1673 
4178 1544 1253 3813 2048 1980 2542 400 302 
2996 4114 2953 438 360 4269 3875 3395 1587 
2984 1614 2992 2157 341 4308 4327 2104 3458 
4286 3797 1704 2958 4309 797 1678 2835 750 
4290 440 792 2165 1666 2964 3443 864 741 
3396 3011 4317 1240 2087 866 3882 3348 3766 
3789 2119 4331 1622 3699 1230 413 1204 859 
3874 1683 3419 808 848 3777 3432 2532 431 
2921 1741 3007 3890 850 1561 2995 2538 435 
1282 1216 2530 3870 2572 4257 1234 3454 370 
2499 2528 261 4321 1293 1241 1725 1569 377 
2160 3885 4232 3016 3386 4238 2579 1732 794 
378 3437 380 2106 4306 865 840 383 3800 
793 2480 262 3008 4316 2491 4304 1647 373 
3717 1290 3866 2998 1187 4332 1679 1207 1680 
2920 2490 335 2566 2430 1180 4305 4256 2955 
3770 853 3440 3446 2162 3824 4313 3015 801 
4259 2112 434 2108 2582 2148 1723 4201 1748 
436 416 682 2495 3020 1719 1743 1285 2496 
2105 2533 1304 2417 1297 421 1118 379 2590 
1287 2924 3438 2113 747 4204 846 2111 2580 
2569 1247 2146 260 1682 3826 2535 685 439 
2592 3871 3431 3887 1296 1636 4208 1733 423 
1624 3017 3435 371 4266 3780 2486 382 3357 
2063 3398 746 4303 2960 1681 749 1738 1242 
2999 414 3776 1302 2163 4329 1306 425 2575 
1239 3822 2072 3878 1186 3442 2855 1111 4209 
3816 2594 3876 1744 4262 1737 3779 2411 2475 
2477 2166 3010 2155 3269 844 1301 2147 1729 
2159 2567 803 2581 427 2153 800 1284 418 
1727 858 3004 2529 441 3012 3456 2577 2591 
3367 3453 1235 3782 3434 3006 3886 3879 3391 
2585 3390 426 3883 1232 4239 3397 2171 1676 
3450 2169 4323 2997 1734 2156 2596 3802 1726 
2993 2081 3863 798 3389 2168 2836 2571 1554 
4270 857 2422 3818 1237 2549 841 1739 3441 
2574 1125 753 1721 3014 2101 3009 2959 2412 
422 3433 376 336 2595 1189 823 1993 2536 
3787 2161 2851 3814 2406 4133 2565 3400 1545 
385 4116 2896 1717 3420 2857 1269 3725 401 
313 2409 718 2557 3373 1667 1256 2948 4289 
4279 2562 4135 2047 2956 1601 4274 2128 3842 
3315 2972 396 838 381 1219 3299 2980 3407 
2029 2115 1662 1696 830 3850 4276 3422 2031 
831 1277 2552 2548 2016 3855 3403 1140 392 
2553 3380 786 807 388 2544 3382 1266 1137 
1705 1261 2134 1697 2122 3305 812 2401 1594 
2125 724 822 2561 1537 1710 1252 1106 1257 
389 4255 2556 2973 832 833 2944 2547 1668 
1691 3675 241 1258 829 3405 1702 1716 1690 
795 2114 390 3347 3376 2887 3757 3399 787 
375 2558 1693 2897 362 2546 3303 2520 4297 
3378 3837 2971 410 2090 1175 1105 3678 1701 
3857 1272 2091 1549 2021 409 3865 2815 1613 
815 3835 1607 2129 1663 4275 3329 2885 2966 
1692 2120 3368 3808 2118 783 412 721 405 
1223 1714 4291 1243 2116 1171 1249 1229 2522 
3402 2531 2560 4301 854 2127 4124 1670 3873 
2541 4283 2848 1104 673 442 1259 1233 2152 
349 4324 3805 1685 3815 2107 3884 2110 2175 
3385 3414 837 4264 2587 365 1280 3268 2994 
2139 2151 3806 2004 3392 1274 3344 1295 817 