# vtk DataFile Version 4.0
Generated by LIGGGHTS
ASCII
DATASET POLYDATA
POINTS 4191 float
-0.219393 0.00227276 -0.244978 -0.206773 0.00842013 -0.244992 -0.149836 0.00517722 -0.2444 
-0.139326 0.000505222 -0.243263 -0.155865 0.00995553 -0.135028 -0.177048 0.00752417 -0.0164515 
-0.195352 0.0134597 -0.0488686 -0.181971 0.0116877 -0.139151 -0.181679 0.0113619 -0.243868 
-0.173264 0.00235894 -0.244946 -0.160634 0.00744694 -0.244967 -0.13329 0.00815582 -0.244992 
-0.198922 0.00733881 -0.237298 -0.244238 0.00827577 -0.236066 -0.155839 0.000926715 -0.234376 
-0.144549 0.00511994 -0.228787 -0.231588 0.00646358 -0.232223 -0.21762 0.00218261 -0.235099 
-0.198526 0.0112739 -0.00116093 -0.21485 0.00584143 -0.225995 -0.199209 0.00302726 -0.22803 
-0.153996 0.00619921 -0.22493 -0.207656 0.008912 -0.232483 -0.180377 0.00637515 -0.226819 
-0.169274 0.0127969 -0.227138 -0.241577 0.00729792 -0.22644 -0.233326 0.00932369 -0.220122 
-0.194508 0.00237546 -0.218364 -0.145591 0.0103831 -0.218353 -0.216093 0.0123482 -0.18974 
-0.205663 0.00377624 -0.219509 -0.163754 0.00542814 -0.221554 -0.134814 0.0097485 -0.223872 
-0.244774 0.00487579 -0.213967 -0.200124 0.00789801 -0.210624 -0.15422 0.00810394 -0.213828 
-0.213612 0.00997832 -0.216919 -0.235657 0.00885371 -0.209408 -0.164961 0.00673304 -0.209527 
-0.185532 0.00632118 -0.21332 -0.17506 0.00964725 -0.207385 -0.147404 0.00640971 -0.20448 
-0.16001 0.0100668 -0.11469 -0.242033 0.0148607 -0.218287 -0.13881 0.0127207 -0.110203 
-0.158407 0.0144768 -0.206905 -0.133824 0.00523363 -0.204488 -0.244825 0.00597622 -0.203954 
-0.226331 0.00650818 -0.206503 -0.193459 0.00508538 -0.203726 -0.15416 0.0114949 -0.197973 
-0.216134 0.00462631 -0.20851 -0.201737 0.00945499 -0.200135 -0.184213 0.0096138 -0.20135 
-0.168395 0.0129428 -0.0218996 -0.222181 0.0129875 -0.179692 -0.238494 0.000594018 -0.194859 
-0.210672 0.00525562 -0.196048 -0.195405 0.000567475 -0.194626 -0.183829 0.00648193 -0.191428 
-0.164157 0.0109211 -0.196931 -0.225006 0.00929923 -0.193799 -0.208137 0.00743524 -0.186195 
-0.159925 0.0113024 -0.187857 -0.24453 0.00171577 -0.186377 -0.176839 0.00369093 -0.183474 
-0.150123 0.00858723 -0.189303 -0.138451 0.00476348 -0.186216 -0.200581 0.0123285 -0.190546 
-0.191187 0.0146198 -0.187997 -0.227706 0.00417252 -0.184122 -0.217651 0.00380517 -0.182462 
-0.193368 0.00584468 -0.182554 -0.16255 0.00183231 -0.176583 -0.182744 0.0122877 -0.182929 
-0.200253 0.0122596 -0.220284 -0.150485 0.00640749 -0.179219 -0.209237 0.00691402 -0.176266 
-0.134177 0.00886026 -0.175874 -0.236165 0.00585289 -0.178131 -0.200427 0.0132029 -0.180058 
-0.190368 0.0144929 -0.176368 -0.24494 0.0119726 -0.194936 -0.162233 0.0086855 -0.234969 
-0.142627 0.0140248 -0.17915 -0.233453 0.0148086 -0.200503 -0.197284 0.00947642 -0.171111 
-0.234927 0.00338387 -0.167516 -0.223481 0.000492997 -0.17416 -0.154607 0.00638968 -0.170026 
-0.244092 0.000595448 -0.175067 -0.181463 0.00825432 -0.173685 -0.189394 0.00826702 -0.164967 
-0.130099 0.0136405 -0.215334 -0.214816 0.00126806 -0.168811 -0.203578 0.00901369 -0.1631 
-0.244952 0.0131924 -0.0613865 -0.172416 0.00879286 -0.169404 -0.161853 0.0133037 -0.167006 
-0.189868 0.012258 -0.133015 -0.137094 0.000594118 -0.16814 -0.223646 0.00823619 -0.165056 
-0.214082 0.00881914 -0.158257 -0.158415 0.00058816 -0.160693 -0.147235 0.00505923 -0.162957 
-0.13411 0.0145149 -0.0819143 -0.179611 0.0111334 -0.162213 -0.168431 0.00755522 -0.160296 
-0.230694 0.00591655 -0.156828 -0.185515 0.00247273 -0.15564 -0.14233 0.00413633 -0.150178 
-0.243809 0.0068195 -0.152596 -0.22286 0.0133199 -0.153073 -0.204902 0.0128352 -0.153856 
-0.195035 0.00763461 -0.154633 -0.180404 0.0094493 -0.15057 -0.154785 0.00887944 -0.152752 
-0.235537 0.00173974 -0.147047 -0.224706 0.00344201 -0.148049 -0.170286 0.00584102 -0.149144 
-0.161192 0.00123367 -0.151128 -0.134284 0.00607212 -0.144316 -0.189495 0.0134061 -0.148552 
-0.244955 0.0114936 -0.142008 -0.210777 0.00579321 -0.148592 -0.176759 0.00284026 -0.142104 
-0.163688 0.00503429 -0.141659 -0.152751 0.00491883 -0.143128 -0.199788 0.0130712 -0.145267 
-0.236975 0.00815467 -0.13696 -0.225721 0.00947292 -0.138208 -0.211229 0.0108314 -0.133659 
-0.186558 0.00262492 -0.139051 -0.135845 0.0127453 -0.131702 -0.170739 0.00906945 -0.135333 
-0.142074 0.0085391 -0.1383 -0.188504 0.0106773 -0.000237532 -0.180008 0.00390406 -0.13158 
-0.160077 0.000607611 -0.132791 -0.148873 0.000848519 -0.129451 -0.139215 0.000565087 -0.131966 
-0.137158 0.0094887 -0.161255 -0.229309 0.0076936 -0.128364 -0.220263 0.011953 -0.129231 
-0.201032 0.0128229 -0.135213 -0.2001 0.00756981 -0.125766 -0.236762 0.00640011 -0.121618 
-0.217696 0.00064559 -0.123758 -0.190393 0.00864174 -0.123576 -0.167381 0.00115059 -0.124643 
-0.179432 0.0141422 -0.112951 -0.210119 0.00839099 -0.122918 -0.15511 0.00738506 -0.124907 
-0.138143 0.00901673 -0.120257 -0.226494 0.00307944 -0.117903 -0.217613 0.00442945 -0.113361 
-0.180407 0.0086617 -0.122784 -0.202633 0.0122808 -0.116538 -0.162011 0.000489358 -0.116056 
-0.140814 0.0109143 -0.238987 -0.185052 0.00315684 -0.113793 -0.244979 0.00375908 -0.115941 
-0.233454 0.00960304 -0.110618 -0.225634 0.00228447 -0.106753 -0.207775 0.00792881 -0.109154 
-0.173061 0.0076184 -0.107837 -0.155845 0.00342599 -0.105137 -0.147065 0.00715161 -0.116139 
-0.156171 0.0114268 -0.088221 -0.187095 0.0103505 -0.0703334 -0.188664 0.0033027 -0.104126 
-0.137876 0.00108006 -0.103748 -0.244785 0.00877184 -0.106978 -0.219478 0.0123108 -0.107315 
-0.238004 0.00658601 -0.0999205 -0.220167 0.00337864 -0.098449 -0.199593 0.0139353 -0.106418 
-0.228053 0.011966 -0.102072 -0.211527 0.0088149 -0.0998649 -0.196625 0.00727589 -0.0995834 
-0.166756 0.00829139 -0.0995213 -0.146912 0.000492881 -0.0976071 -0.244972 0.00418595 -0.0928779 
-0.230344 0.00784699 -0.0932441 -0.213086 0.00319978 -0.0902058 -0.203882 0.00309774 -0.0941341 
-0.134823 0.0107588 -0.0975554 -0.237519 0.00994203 -0.0865889 -0.222269 0.00636025 -0.0875199 
-0.161126 0.00265297 -0.0890007 -0.201391 0.0116977 -0.0894635 -0.193729 0.0039192 -0.0905804 
-0.184387 0.0116212 -0.0873837 -0.174947 0.00951752 -0.0846349 -0.148184 0.00537474 -0.0879594 
-0.13829 0.00752639 -0.0885525 -0.226872 0.0094252 -0.0791784 -0.217149 0.0064184 -0.0786405 
-0.140958 0.00469219 -0.077915 -0.244781 0.00901451 -0.0795165 -0.148097 0.0102894 -0.0975143 
-0.235493 0.0103764 -0.0741922 -0.207313 0.00915209 -0.0793627 -0.192541 0.00944872 -0.0820995 
-0.184279 0.00241604 -0.0757421 -0.166922 0.0094947 -0.0786598 -0.155897 0.0042907 -0.0798784 
-0.132062 0.013231 -0.195483 -0.161313 0.00811274 -0.00615597 -0.244536 0.00565083 -0.0699685 
-0.226456 0.010654 -0.0692342 -0.214481 0.00698082 -0.0670171 -0.198298 0.00628844 -0.0707793 
-0.167957 0.00486368 -0.068243 -0.159264 0.010229 -0.0653661 -0.148456 0.00777521 -0.0708755 
-0.137206 0.00948034 -0.0699995 -0.230426 0.0126481 -0.146539 -0.235131 0.0114161 -0.0642227 
-0.191626 0.000583667 -0.0646099 -0.132224 0.0126438 -0.0613878 -0.180102 0.00435182 -0.066366 
-0.179356 0.0107095 -0.00426102 -0.218997 0.0114875 -0.0570371 -0.164827 0.00995173 -0.0568981 
-0.150786 0.0108358 -0.0585138 -0.244988 0.000607701 -0.0588027 -0.218004 0.0139118 -0.00262229 
-0.206601 0.00828328 -0.059118 -0.195783 0.00946747 -0.06161 -0.183898 0.0126623 -0.0596588 
-0.174821 0.00384583 -0.0578131 -0.19021 0.00538443 -0.0541393 -0.140158 0.0117621 -0.0546724 
-0.235221 0.00700244 -0.0516031 -0.22577 0.00966041 -0.0497231 -0.180837 0.00708028 -0.0498294 
-0.158989 0.0103718 -0.0484611 -0.210253 0.0049458 -0.0494471 -0.148764 0.0144809 -0.0493419 
-0.164229 0.0114514 -0.125684 -0.196531 0.000593198 -0.0443003 -0.245007 0.0107825 -0.0480071 
-0.23475 0.0129097 -0.243773 -0.217377 0.0135495 -0.0459343 -0.168104 0.0140626 -0.0462244 
-0.206431 0.013303 -0.0680088 -0.222089 0.00476659 -0.0401995 -0.179568 0.00597892 -0.0365608 
-0.13571 0.00849924 -0.040927 -0.241377 0.00935713 -0.0388033 -0.208382 0.00369591 -0.0390266 
-0.187553 0.00841864 -0.0423969 -0.145784 0.0103415 -0.0379998 -0.231412 0.0135488 -0.0354623 
-0.201464 0.000605597 -0.031252 -0.157094 0.00236072 -0.0407245 -0.218225 0.00410271 -0.0308104 
-0.161531 0.00804635 -0.0286183 -0.144266 0.0103178 -0.0275641 -0.244794 0.0023525 -0.0288257 
-0.208631 0.00929309 -0.0232162 -0.190707 0.0021778 -0.0310463 -0.178735 0.00509218 -0.0264915 
-0.169129 0.00247106 -0.025247 -0.152858 0.000546327 -0.0304528 -0.173259 0.0138842 -0.143719 
-0.196714 0.0148711 -0.0232591 -0.242145 0.00351747 -0.0189235 -0.21778 0.00422496 -0.0206307 
-0.146299 0.0133268 -0.156928 -0.151975 0.0106632 -0.236307 -0.186795 0.0103695 -0.020647 
-0.155531 0.0124953 -0.0212126 -0.135639 0.00751261 -0.0217783 -0.22185 0.000846052 -0.00873048 
-0.212295 0.00922954 -0.0121242 -0.203678 0.0139141 -0.0157256 -0.193752 0.015077 -0.0127319 
-0.18512 0.00463077 -0.0113193 -0.162902 0.00514622 -0.0166639 -0.144938 0.00368814 -0.0198872 
-0.131814 0.00388785 -0.013242 -0.244989 0.00886475 -0.00984181 -0.237276 0.000966487 -0.00861353 
-0.146724 0.0126867 -0.00920181 -0.227632 0.0103724 -0.000667409 -0.244906 0.000459048 -0.164438 
-0.170737 0.0043335 -0.00893507 -0.212445 0.0128631 -0.0317725 -0.214869 0.0121679 -0.238599 
-0.134513 0.0125643 -0.00811948 -0.153138 0.0128193 -0.0314803 -0.190137 0.0118513 -0.220263 
-0.13877 0.0110777 -0.211074 -0.231293 0.0134925 -0.18685 -0.192799 0.0135235 -0.197996 
-0.244969 0.0115742 -0.173026 -0.172298 0.0134068 -0.0641967 -0.213844 0.0131327 -0.203745 
-0.158008 0.0132048 -0.0998572 -0.208521 0.0113901 -0.00064952 -0.196499 0.0132326 -0.229543 
-0.132382 0.0136859 -0.233914 -0.231663 0.0143943 -0.175544 -0.244671 0.0134323 -0.0205666 
-0.148366 0.0141675 -0.10752 -0.24473 0.0141156 -0.0306761 -0.221285 0.0139824 -0.0363411 
-0.244532 0.0136787 -0.183324 -0.140658 0.01435 -0.148383 -0.160566 0.0147843 -0.21776 
-0.172842 0.0145927 -0.0107738 -0.14477 0.0149303 -0.199454 -0.151195 0.0125867 -5.36632e-05 
[...]
POINT_DATA 4191
FIELD FieldData 3
id 1 4191 int
480 2182 7 1486 485 2643 1794 2634 3502 
2208 96 4065 2215 3034 3022 919 1783 445 
1318 2184 1786 1750 3180 1777 1337 1752 3492 
3486 453 16 3922 3190 1477 1348 487 3631 
3472 3926 3056 47 2210 12 2212 1341 1 
1313 4057 2178 2597 531 1015 1800 1797 4030 
1356 1796 1774 2333 486 3489 3898 3065 586 
1320 4053 154 3024 3471 3053 2628 3038 880 
8 2197 3187 917 2277 3070 3113 2207 2627 
1761 3055 1014 2325 538 2607 2202 3466 2736 
1031 36 466 4001 464 4034 448 3074 2601 
1467 1778 37 906 2641 4066 924 1837 1375 
2629 1345 3128 63 3938 54 2199 10 3163 
921 2177 912 488 1445 3035 58 3461 2625 
1363 1791 2644 3465 2649 59 1032 2733 1406 
907 2336 911 1417 1915 2320 465 913 2220 
602 1775 2314 1312 2752 3068 901 1349 444 
3948 2623 2221 3037 1781 2621 3933 877 1357 
3924 2598 1322 3508 3892 1358 45 3506 2183 
167 3071 1355 491 899 2632 872 2195 3931 
926 55 3491 2646 3894 1838 3935 905 3028 
1856 3630 2764 1756 3603 1085 3130 142 3189 
2198 2600 2341 3076 1753 49 3544 3893 2295 
2337 1054 2645 2181 1898 1751 1911 2180 2328 
875 904 1360 74 1912 493 558 1347 1352 
1411 3944 3522 2599 3050 3992 462 3026 50 
874 1361 181 2620 1883 3195 1022 1479 2203 
5 1900 1333 3196 498 490 2223 933 3903 
467 169 2635 2648 3936 2698 2664 1512 1443 
1759 3086 548 2299 3643 2694 2205 2655 2379 
2312 1366 1371 1365 3897 3919 3078 1865 2353 
953 3914 110 2758 3044 3975 3965 3104 1353 
614 2604 876 22 869 3551 2636 475 474 
481 3049 2216 3511 2723 62 3627 162 2679 
594 3947 41 3896 4050 2218 1908 3946 2652 
89 495 636 927 2672 1830 2676 76 4049 
3047 2251 3928 3917 873 634 1400 4077 1330 
218 3635 185 1813 3957 449 1078 1947 93 
1393 2179 512 136 3215 66 931 23 2204 
3561 947 4009 3671 1763 3665 209 77 896 
620 459 2191 923 523 499 100 3537 3054 
511 3229 1826 625 2650 3940 60 1069 34 
559 4020 1935 3213 3480 1328 470 916 886 
3141 17 2225 3955 3477 3228 954 3962 2611 
653 11 505 2615 92 3515 1879 3094 1080 
3520 194 2653 86 84 3968 1373 2374 1384 
1776 1785 496 3970 3969 33 955 1394 1767 
2363 1087 2280 18 3513 514 2298 2661 938 
91 1441 3904 1812 1422 1951 2637 3081 224 
2708 629 1833 1501 2250 1381 3981 2244 1822 
461 561 3048 4091 2240 950 228 647 3569 
2722 3110 892 2788 2609 2229 2226 64 501 
3571 2662 1862 3039 3140 1378 3082 2188 2291 
3093 3518 3666 2673 2616 3963 2254 509 2657 
1823 1966 2610 20 2724 3474 3534 4024 991 
4074 3085 1060 3527 2665 3517 2769 506 984 
24 929 3098 1819 571 2678 2783 1389 3135 
1390 3111 2190 3568 32 1433 3045 1511 1359 
90 1963 952 4017 1962 1815 2608 2668 3475 
2666 1769 202 3657 2347 1821 1520 1524 518 
27 1928 1771 1334 3536 1874 1062 199 3648 
3535 2613 3528 3523 1828 1816 1327 2193 3911 
1423 2383 1810 3539 522 1514 128 2707 891 
1934 28 3525 2252 2238 3516 1937 2778 3953 
3959 1429 227 3531 3046 2232 1770 2231 3976 
69 3966 3578 3913 1329 2293 992 3529 1766 
3915 3708 494 457 894 3090 72 1385 2192 
638 3916 4111 1335 1768 945 68 3570 1516 
3083 2224 460 216 1808 3084 2660 887 940 
1827 934 2227 29 1380 3540 2651 88 628 
521 3530 3109 3587 2614 3644 1470 932 1528 
4076 3230 1878 3579 2378 1755 3620 484 3495 
1012 177 3761 99 1904 3033 3473 879 1757 
3908 454 3930 15 871 1324 596 608 3057 
1779 2209 3483 2640 3496 451 3236 206 3624 
1325 1026 67 1317 1003 922 2693 1018 525 
1354 546 3484 3543 3115 3927 482 2 3202 
4033 492 881 39 2217 1483 2756 1758 1950 
211 3029 2176 909 3994 3459 3902 1344 1350 
590 3545 2185 3077 961 1849 3460 535 2256 
4 910 1321 1842 35 157 2263 2305 3932 
606 2201 3061 1420 4004 868 3937 468 1798 
40 1010 2211 3504 2309 1339 890 2622 1788 
3112 3177 3079 1801 1316 2631 898 2606 1906 
2755 483 477 1762 3469 1043 3503 1793 3108 
476 2670 3051 52 4090 1923 3943 2602 3560 
2255 2647 446 3 900 3532 3159 1311 1476 
966 1787 3951 1044 3982 1790 1852 1362 53 
1795 1310 3482 3971 1343 510 46 2638 2219 
1338 581 3467 1924 3607 1342 878 4082 452 
2699 915 2639 1408 3036 2200 1351 3158 902 
914 450 1416 3032 9 3464 3521 3899 883 
3025 3923 1510 1346 2633 473 3182 3063 951 
3030 3470 1314 3929 884 3031 208 3972 51 
2624 567 3921 38 882 3069 2322 4071 30 
4080 519 4026 1938 2654 42 3949 3493 2243 
2677 25 85 4073 1475 935 3978 2656 21 
3097 2236 4013 1326 43 1331 1424 2248 4083 
187 3952 643 563 1377 3512 1809 956 1397 
630 2617 3099 3973 4094 463 3918 2809 3912 
2233 513 944 3107 1084 2235 3956 126 4103 
2642 1376 1336 1374 3479 1387 2612 507 948 
3907 3967 1764 1427 1383 936 1386 502 2242 
2626 889 3478 1820 3101 217 3980 456 520 
1396 458 4084 3091 3960 508 888 3052 1527 
1392 3092 1824 3658 1811 3979 3910 1943 3145 
3533 3485 3589 2768 930 3964 138 3153 2189 
95 2802 1051 4085 1395 4097 2230 939 3041 
3100 3080 2349 893 1391 895 3103 1382 3476 
3538 1772 3064 990 2234 2342 1954 3106 4104 
4106 1370 2663 516 2239 1367 2253 1063 2669 
3961 942 2186 71 2674 2281 1871 579 3599 
3494 1461 2464 3301 2271 4000 526 2340 4115 
2728 3598 3983 13 1035 170 2302 1913 2760 
1854 2042 3942 3308 3183 1841 3628 3604 150 
2754 1040 3118 1552 2818 4060 4058 3622 2315 
4078 4177 3891 1028 2466 2687 1410 2462 2301 
4158 4003 2680 1448 1023 3728 1918 155 959 
3616 740 2738 1109 112 1462 2213 109 3552 
1894 3197 1907 2757 2753 1038 4041 1910 1903 
1464 574 714 729 4037 3729 977 183 1402 
4187 163 3134 3185 3126 3509 1037 1446 2040 
2730 2697 978 1782 3075 1890 117 1480 2313 
968 1754 6 2403 3059 281 3166 3307 710 
3996 2327 4173 178 612 970 1456 3027 588 
1011 544 572 957 3133 2743 908 2257 2725 
962 967 186 2387 4038 2686 173 3548 597 
3556 610 3592 2700 2759 1888 156 2684 3559 
2692 2274 2306 3596 1452 1030 1034 3985 4002 
4031 1886 1902 1447 3895 3132 1413 3131 1414 
2441 545 1897 2803 2605 2744 3618 1858 1851 
3186 530 2821 3310 2020 3317 101 903 1460 
3709 524 1039 1765 2324 4194 472 543 3121 
1988 2266 599 3129 1024 3997 605 1760 670 
4172 2310 675 3174 969 82 603 3555 3124 
1004 236 1412 2889 174 539 1839 2339 1041 
2732 4117 3690 3984 532 2351 116 1968 573 
191 2695 547 3590 4035 1867 2734 168 996 
2260 4051 3246 3595 4171 726 3510 3608 3127 
1029 1450 1857 1117 180 593 1332 652 196 
2407 613 2771 555 2316 1885 3613 1617 1619 
3612 1399 1799 1920 2308 1415 44 3750 533 
1454 245 184 3160 2084 145 4045 577 3611 
147 4047 2702 327 504 3120 3167 2685 2367 
3565 1444 179 963 618 1840 3172 1995 80 
3193 1957 1005 2332 1917 3557 3306 1458 3058 
105 98 151 1437 1449 3995 4108 2041 2822 
623 2786 2748 2321 4087 2914 1025 2267 2194 
2727 3220 2991 102 3201 192 1419 3563 1100 
175 4006 3105 761 4036 1163 2726 149 592 
2766 469 1850 960 3760 1535 537 2761 2343 
1882 3987 2397 3554 108 346 311 4042 1418 
4064 295 103 3623 1047 1889 3209 2806 1864 
1565 975 1901 3573 3574 582 885 81 3576 
133 1057 1654 3258 3676 965 223 2667 2292 
1492 3773 2804 3958 1379 1428 3212 2890 4198 
3672 1048 4223 1914 1495 3040 3192 980 2630 
3188 987 2068 1083 3222 3577 1932 1991 222 
3650 2481 635 2287 1868 3206 2354 3207 3146 
565 2793 2300 3333 2294 120 4025 2781 4109 
2278 2261 3660 2799 1881 3584 1061 1179 3208 
159 342 3669 1953 3234 1942 2780 4040 3138 
2054 2050 2359 1621 2380 2355 3581 215 1804 
2384 2706 4102 3203 3217 3799 4216 3242 4150 
1046 4072 551 3137 2847 1659 78 2288 2717 
221 1131 3771 633 1198 3719 552 1075 646 
2718 4010 1494 617 2419 204 83 1945 4008 
4139 4212 2352 1079 2792 3668 3954 554 566 
2703 3360 1059 4011 2913 995 1859 1436 3588 
2485 4098 2297 3279 2345 1941 2241 2249 3136 
651 2237 3139 2784 321 1435 3646 3221 125 
200 1515 189 632 2386 2837 1073 1870 3781 
1572 1505 616 3636 2002 568 3216 2805 2791 
1369 1564 2245 1123 3239 2720 3663 455 655 
4220 1074 3653 4075 1927 1056 2785 4211 3649 
3617 2773 3354 1077 2772 626 562 2801 637 
3586 560 3337 1442 3642 2789 3659 2808 3238 
3088 2279 3920 3481 1082 2712 4088 2357 2841 
778 1866 2348 2086 1961 4110 1509 2774 3204 
213 137 1949 2489 1523 3155 3102 122 2284 
1930 2501 1508 4092 2510 1965 2790 3583 1825 
3240 352 4012 3143 127 2714 2056 2505 3154 
1513 3142 19 3670 644 983 31 131 2675 
1496 4027 1946 4101 1050 2366 3647 998 3796 
1001 640 2907 203 1880 2787 2713 1368 212 
2375 1869 143 1872 3632 3566 627 2705 2800 
1504 986 1877 2187 201 1638 4028 1049 1940 
1933 694 3225 3661 517 3582 3369 1122 3906 
1832 3801 1491 1076 1081 1439 1493 1070 2361 
1999 3634 94 3224 1807 2709 2059 2296 3641 
1895 210 2731 2290 1873 1944 1066 4023 748 
79 1802 3194 124 2283 329 985 1502 3909 
2795 3655 135 4067 2326 1844 1009 3191 171 
3119 1016 3164 3988 3490 974 447 604 1803 
3721 4014 2742 1471 870 607 306 1019 3993 
1592 529 152 220 2467 1052 106 2270 1749 
3364 48 1896 2331 1403 660 1922 971 2603 
3989 2749 3255 1892 489 2269 3067 3298 3095 
257 3597 3998 3122 918 2206 2740 3169 541 
3606 3939 2376 1893 1891 1921 1846 1845 925 
585 1430 3547 198 2690 3629 3161 144 578 
1632 1459 308 2681 2275 3487 3639 2329 973 
2258 3125 70 2696 4119 1013 3116 2746 172 
3181 1948 1532 1315 3614 1466 1853 3602 3173 
542 3625 4061 1453 2861 1401 3553 2691 3176 
114 1340 2265 3558 1536 1463 4190 2468 3609 
1058 1409 3468 1579 3168 2276 3610 601 251 
1472 3615 738 299 4029 1134 1405 3905 239 
188 3062 1905 2307 584 576 4046 2018 3990 
4062 2688 3542 1884 2881 3463 1451 4048 3170 
1526 4069 1017 1843 976 1482 2009 2659 3205 
1036 1637 4052 553 3562 600 2196 2334 57 
4070 2259 2272 528 1887 3171 598 2264 129 
1784 575 1006 1834 3619 3462 1027 3567 2396 
2268 3526 3156 981 3716 4022 130 1210 3233 
2775 3148 3219 3654 3147 4007 176 2782 2382 
3241 609 2922 3157 2246 1861 1506 1067 3662 
2719 4132 2415 1053 515 993 1876 315 1831 
1002 2286 4018 654 214 118 649 2282 1522 
3633 225 4147 3711 3175 3673 619 3524 1836 
2776 3637 195 1926 4234 549 190 219 3352 
642 946 1646 1497 943 2497 1517 1432 1925 
3645 2381 1499 2364 205 3237 182 941 4081 
1431 2507 570 1805 2777 1990 2356 622 648 
695 4112 1426 4015 641 1425 1525 3519 1065 
2425 1956 2247 229 121 2710 1875 2373 4079 
2939 1202 3149 1498 4089 3585 621 2671 2358 
1000 3656 1434 3449 2935 2807 656 113 569 
3096 1959 1487 207 2498 994 928 3733 4055 
3977 1372 2658 1817 997 1407 3144 3572 4095 
3235 1518 2370 1500 1955 3231 550 631 75 
3211 2937 2350 1086 268 4143 645 698 3214 
2794 65 1863 1488 615 3227 2779 1653 4107 
2369 4210 989 2285 134 123 1814 4086 1960 
140 2711 2704 197 1455 2317 3564 298 244 
1584 386 3601 2870 3746 3422 3262 2012 3252 
248 3303 3316 97 2824 703 3294 2044 1582 
3986 1137 662 3679 2884 3292 3318 2453 1465 
3254 4168 4186 705 3413 2762 3293 1581 1696 
160 2767 2037 4135 3162 2445 158 1267 1542 
2814 4196 2451 2747 4164 3754 1174 2862 1140 
3755 1099 2014 2819 233 2729 2896 1169 3291 
2564 1706 4126 1404 3685 2750 2816 534 739 
2034 3266 659 3591 4130 3687 3751 725 1973 
668 3737 3752 4197 161 2432 1604 2019 730 
1688 1094 812 2871 1007 2864 1149 1481 3178 
4162 527 1919 2094 1978 3382 1398 663 1610 
666 2459 1578 1598 274 3257 238 2765 3330 
1976 1983 1588 3302 720 3758 165 3734 3312 
4160 731 2473 2036 381 2828 2335 1589 1469 
1093 2823 2830 3727 3546 972 1166 1583 1602 
2741 1596 2735 1982 1096 3697 1168 4032 1607 
1899 2028 587 2872 2701 1162 4181 241 2021 
595 1551 2338 2435 3329 1158 1484 3684 2880 
1173 280 727 2876 1089 1145 1264 4043 2456 
3774 1847 4120 3626 2465 2894 286 2404 1585 
580 148 4129 2829 2433 3605 2892 3757 2888 
2071 2436 4068 2866 2452 1474 279 283 3683 
1156 1146 2022 1105 1986 3681 301 672 2039 
314 1138 2023 1097 713 3736 3325 3689 2990 
304 2987 3248 4122 2739 2394 1971 4113 1091 
3753 4287 4189 958 2471 3379 115 4159 385 
252 164 2487 1848 297 2519 2905 4294 1718 
3259 296 3249 1170 2831 3794 3593 250 1150 
3692 2954 1161 4141 1160 3200 309 716 732 
2855 4118 3280 3694 3114 2045 4127 2444 1702 
3250 2080 669 4131 704 4176 2472 1534 1698 
1457 1529 1540 3674 265 4205 3549 3838 1936 
166 4312 4296 3218 1608 664 2763 1205 4063 
290 1665 2715 3772 1609 2449 3287 3353 1468 
4193 2902 3766 2868 982 255 2304 2813 2867 
1531 536 2879 2812 2836 2007 4056 2874 249 
2442 104 1088 1731 305 3693 707 964 273 
3314 1711 2547 282 1601 4206 2393 2891 119 
2834 3223 3300 4145 3334 1929 3759 1539 4243 
2852 1245 1113 2061 1685 1188 3275 1213 828 
2832 2925 2798 417 3273 1537 4099 4228 3151 
1553 723 2043 2463 2883 139 2360 3271 3003 
1586 2064 3784 1967 2899 680 3340 3795 3264 
2532 1119 712 2458 1490 3365 4295 2164 331 
278 4170 4320 2001 4146 2850 1627 4144 2916 
1974 4203 1657 658 319 2737 3256 3260 4238 
1194 1206 267 1136 261 1916 4161 4148 2934 
755 2426 1571 3999 1631 687 1563 2503 3245 
1092 3691 1101 3798 3407 335 847 4138 1473 
4237 4225 2882 1182 2362 1650 4221 3288 3783 
684 767 3362 235 2480 3879 3792 2049 1558 
4227 2421 3348 3707 2420 2904 3349 3889 2924 
4231 1977 439 3788 4156 4200 2865 1651 772 
3703 1438 762 3786 2500 3370 3652 4236 781 
2838 2076 1998 3871 2910 3706 2070 2929 3452 
2917 322 330 3790 2959 2385 2502 3806 768 
3714 1939 1190 839 266 1648 4059 3698 999 
1302 2424 2856 2414 1132 2051 340 320 2065 
1860 2915 1507 316 2124 691 2069 2418 1289 
2843 350 1992 2154 4157 696 2513 1575 2494 
3331 3356 1303 3451 3343 1212 1118 1126 4137 
4226 4313 3768 765 1214 2074 1674 4224 3878 
2770 770 2158 1652 764 2346 443 2506 1176 
3283 744 423 2846 2410 1201 4318 3769 2478 
1559 3267 4239 766 1620 4149 1193 3346 3710 
681 318 692 4151 2918 4233 1297 1184 4154 
3358 2511 1121 1628 2908 1656 1566 334 2514 
1177 2854 1185 4093 3819 2377 1623 1640 2053 
1215 3436 3226 326 3243 1115 1130 3785 2067 
3276 1238 4096 1072 2853 779 1560 317 2842 
3779 650 2085 1199 226 1952 3371 355 3664 
3667 2110 1489 1997 3361 347 1120 1421 2103 
3888 763 4153 132 1503 2923 3152 2474 1629 
1630 153 3332 1300 2512 3704 1181 3777 3778 
3764 2919 254 272 4155 3457 1644 1587 852 
2089 253 556 759 3824 775 2035 2408 1595 
2120 1909 285 4039 2875 291 2311 1972 3165 
4195 337 1577 3290 1110 3600 61 240 1855 
2013 2434 745 3319 1717 4188 639 1835 1969 
3263 2406 2461 3323 2038 4166 3309 2303 3261 
589 3740 3313 357 4121 3726 3730 247 1021 
3328 1172 4185 2745 2318 4192 3723 3846 3321 
2026 232 711 3184 3372 4184 4005 2689 3251 
4191 1108 2815 231 2130 2033 3686 3745 289 
367 1981 1548 3326 1599 979 3677 734 3410 
3418 3747 3731 1591 1547 2262 2873 821 1576 
2470 1975 1605 292 540 3811 1008 107 611 
3756 4174 4054 3594 3744 4182 2024 1107 3198 
3688 3682 2448 2388 2886 736 111 2439 2751 
1090 1133 2344 2946 2090 1154 3621 3304 2457 
814 3762 2524 3732 3991 2093 3763 4183 4169 
246 2683 2682 1485 2440 287 2398 3743 1668 
1590 1530 3295 784 1222 2447 2273 1701 2878 
4105 1135 2437 2454 2323 1142 3324 293 2817 
3296 728 2015 3232 1478 1521 2446 396 1538 
665 4167 2330 3199 1616 1157 677 3265 4218 
3426 1641 1208 2542 277 2389 2405 3742 2860 
2368 1042 146 2926 300 2833 4217 2931 773 
2508 2087 624 2906 3117 3828 141 2455 3338 
1167 2721 1636 777 3282 1033 3269 3281 2055 
776 2429 689 2930 2319 3455 294 3791 3702 
259 1192 1128 1570 1178 1102 1141 2903 1562 
372 2716 2460 2536 688 4152 3720 2416 3150 
1556 3580 2098 1655 1124 1568 3286 1440 1068 
757 3814 1612 2844 769 4019 349 1064 256 
4044 4100 3277 3431 3640 679 1574 2428 1647 
2365 1723 264 3775 693 686 4222 3651 1165 
690 1112 3274 2066 3363 3341 2933 1195 1203 
343 3575 1183 2938 2928 328 1958 1247 1603 
2372 2595 1994 3803 2427 1633 3270 747 2062 
3765 2167 2371 270 1196 2900 1114 3804 4213 
1200 3359 1642 1045 862 2052 2796 2912 4016 
3712 743 3350 2509 344 2008 3638 699 3366 
2839 4204 1055 348 3713 1626 1567 3700 1211 
988 2058 4136 4199 4215 557 2003 3836 2173 
1129 1643 3447 756 2479 341 3278 3823 4230 
4325 2078 324 1143 3007 3336 2289 1649 697 
332 3423 303 2006 2027 2088 774 4208 2797 
4201 2901 4316 1996 3412 3299 1597 2048 3289 
2099 1661 2948 2983 3841 2030 2977 3809 2968 
4116 1265 4279 838 1276 3847 4281 2972 2121 
2135 3409 1980 1703 400 1695 2550 715 1673 
708 384 3858 2143 674 3839 2825 243 2979 
2391 2115 2128 3404 3856 4254 3402 1543 3866 
4274 276 3403 2810 2523 2017 3854 2561 2552 
1985 3735 3829 3377 4251 813 826 1593 3832 
2541 3424 4245 709 4276 3749 1106 2858 388 
1219 1224 2140 3844 2950 1153 2975 815 2545 
4247 2827 1611 3381 310 2123 786 4133 1716 
1600 811 2562 395 1226 4128 392 368 2138 
2132 1606 3834 2947 358 2401 4284 2145 4246 
1277 3305 1171 791 2553 2047 1278 3380 1262 
2895 4275 3375 1255 2548 700 2537 1690 2973 
787 2527 3400 1155 829 724 3810 816 3852 
830 780 1269 2898 1707 1710 833 363 3384 
1250 3376 1260 313 3311 3865 2966 1979 4302 
3851 1594 1613 302 1693 1671 1227 2390 4125 
234 2116 3406 1228 3833 399 825 3859 4244 
2531 3840 3327 409 3416 2134 2518 2863 3812 
2971 2136 1533 782 824 4297 391 2443 1263 
361 3845 1672 2970 2520 2996 412 4124 3420 
1984 3018 788 722 2941 1272 389 2096 785 
2820 2526 3881 387 1546 1268 2450 2965 4328 
2092 4285 3837 671 3368 2885 4288 1545 1175 
2152 3725 717 1987 790 4286 3458 3425 2438 
230 1243 2469 2515 673 403 2985 3873 3253 
2974 1549 797 2010 404 2980 796 4298 438 
3855 1970 288 795 369 4280 2826 3724 2982 
1104 3808 1692 1225 809 1694 2114 402 1713 
3848 835 2956 2967 1197 2995 3748 3741 807 
1691 284 1714 1283 2944 3885 1699 820 817 
2897 1709 1254 2943 3395 3738 718 3807 1667 
1218 706 827 719 4283 1257 2122 1152 2963 
3842 1270 1217 3884 3695 1286 2016 1680 2958 
3414 3883 3002 1259 2994 1557 440 353 2984 
1555 792 3722 4307 1678 855 2549 837 1704 
2581 4241 2483 685 4317 431 741 2106 657 
4331 360 1739 4123 866 3021 1164 1993 808 
859 2499 2909 2119 1561 1246 269 4327 2992 
3432 4263 3890 1622 3419 2953 793 4322 1204 
1681 2161 2530 2538 2160 2165 2151 4324 2046 
2162 338 1683 383 1725 1719 4269 4257 4219 
1285 2998 3797 2150 1216 333 3805 3016 4232 
1740 1241 262 3357 2491 3013 865 419 435 
2554 1293 413 2395 3439 3864 2484 2573 339 
3800 4264 1741 2961 857 1290 3869 1295 3386 
2075 2105 3444 380 2430 4323 3268 4321 701 
1675 442 2163 1234 421 2113 2148 1635 3020 
2060 2534 1735 345 2533 2063 3715 3705 861 
1298 260 3396 2108 430 416 3770 794 749 
263 2495 2079 1095 2111 1292 1306 3393 4319 
2004 3010 2932 2496 434 1186 1125 3009 2486 
2572 2057 2170 2172 3887 750 4207 2589 441 
2109 3802 2590 2580 1727 2488 3433 2422 1733 
3442 682 746 3453 863 1231 2476 2576 2083 
1294 1658 414 1116 4303 3398 678 258 1737 
1279 4329 3429 1159 3388 378 2411 4314 2159 
2482 858 3390 1299 1291 382 2431 3284 753 
4305 1639 3355 3876 1282 2584 3019 2072 2592 
841 4332 4291 2577 3367 1284 4262 4229 1209 
3782 4266 3392 2102 436 433 3005 2594 742 
1280 1684 3272 1235 800 3011 437 2960 4304 
2571 2000 2596 798 3445 2993 1729 4142 2153 
1281 418 426 3817 3430 3006 420 1232 2493 
3867 804 3886 3450 3339 1296 425 1189 2156 
2583 1734 2936 2535 2585 799 3456 1726 3863 
424 2591 1744 1676 354 3454 2976 3347 4272 
2582 2504 1301 2100 3820 2101 771 3446 1625 
3397 3882 410 1989 4179 3843 275 1261 2031 
4114 1544 1249 2175 3244 4163 3678 831 2400 
3417 806 1660 4277 4165 3850 3849 721 3399 
237 2565 2557 737 3383 2988 394 1666 2142 
2011 3428 4250 3680 1271 783 702 2942 2544 
2859 3315 854 2117 1705 842 3857 1252 2543 
1615 3320 2986 1712 1187 810 4253 3322 2409 
362 4261 2969 1256 2563 2402 2126 2141 2945 
1139 2137 2157 1541 407 4299 3415 3860 4178 
1266 3374 1144 398 2392 2131 1715 4278 1148 
4293 1697 3297 2399 2951 4134 2118 4255 405 
2558 1275 2133 408 3247 2095 661 1669 401 
2539 4240 2559 1248 393 365 1670 1580 3835 
1689 3441 1708 2949 3408 1220 3675 2869 1098 
1258 3853 2546 2887 3813 733 359 2940 390 
2104 1662 2893 2032 822 3378 3831 1305 1151 
2877 307 2139 2125 2127 1700 1253 2560 1663 
3427 4249 4301 2129 3421 2107 1664 2144 2517 
2981 4242 1720 2029 4292 406 4273 364 1223 
1550 411 2989 2978 1251 356 2811 2025 2521 
2952 2556 3739 2097 1614 2522 3344 3718 3014 
4290 2964 752 1229 3443 2955 2166 3385 1732 
4021 2528 2169 2586 1624 2911 3875 2412 3699 
2149 848 1207 3342 2168 325 2413 864 2588 
2147 789 850 242 4271 840 375 849 1221 
1274 415 3345 4326 397 1233 1127 427 3389 
2112 2835 3868 3815 3789 1230 1236 1679 4270 
2005 845 2174 2077 1738 2475 3821 2477 3787 
432 3717 2579 374 3015 2490 3335 676 2567 
4309 1569 758 760 3776 4289 2568 3435 2587 
1237 3874 2155 1747 370 3440 3448 379 3437 
4306 3438 4330 683 323 1554 2423 846 3818 