# vtk DataFile Version 4.0
Generated by LIGGGHTS
ASCII
DATASET POLYDATA
POINTS 4243 float
-0.244965 0.00524994 -0.243007 -0.136152 0.0141755 -0.115041 -0.215613 0.0115256 -0.241997 
-0.204444 0.00485999 -0.24425 -0.196558 0.0109041 -0.245009 -0.171872 0.00590012 -0.243545 
-0.161233 0.0135097 -0.0942739 -0.185014 0.0109519 -0.24489 -0.162142 0.0113119 -0.244927 
-0.146382 0.00834998 -0.245058 -0.191226 0.00987807 -0.236595 -0.150389 0.0047747 -0.236697 
-0.132872 0.00578046 -0.241742 -0.206193 0.014 -0.238698 -0.226595 0.0138321 -0.235094 
-0.21301 0.00699984 -0.23277 -0.200977 0.00655564 -0.234474 -0.165977 0.00872931 -0.235986 
-0.138572 0.00738736 -0.233619 -0.240838 0.0135454 -0.23401 -0.174893 0.0112985 -0.232094 
-0.230875 0.013015 -0.226017 -0.183057 0.00710156 -0.227576 -0.194717 0.0129842 -0.214874 
-0.194566 0.0105724 -0.227194 -0.15718 0.00566795 -0.226333 -0.14705 0.00970489 -0.228726 
-0.130265 0.0129153 -0.232799 -0.186261 0.00875262 -0.218243 -0.17566 0.00878248 -0.220808 
-0.151539 0.00547721 -0.217334 -0.135629 0.0094052 -0.222279 -0.19159 0.0147158 -0.180534 
-0.166274 0.0125831 -0.219674 -0.144286 0.0136034 -0.0143176 -0.228532 0.00515119 -0.21609 
-0.218132 0.0048118 -0.215408 -0.204042 0.00579394 -0.218058 -0.24499 0.0111029 -0.212235 
-0.236018 0.0132275 -0.019069 -0.131228 0.0088729 -0.0485023 -0.155571 0.0138212 -0.212935 
-0.235738 0.0114241 -0.207702 -0.203495 0.00487478 -0.207073 -0.192897 0.00882178 -0.205996 
-0.18278 0.00887389 -0.208857 -0.164438 0.00909628 -0.206937 -0.149034 0.00903601 -0.207045 
-0.138022 0.00506717 -0.212244 -0.225552 0.00924605 -0.207388 -0.210701 0.011658 -0.208593 
-0.133678 0.0140735 -0.207887 -0.216942 0.00498169 -0.204544 -0.137968 0.00511411 -0.202004 
-0.244576 0.00554224 -0.202544 -0.234182 0.00773192 -0.198543 -0.207958 0.00483972 -0.196025 
-0.198249 0.00499525 -0.19848 -0.187811 0.00563253 -0.197613 -0.175123 0.0106776 -0.198453 
-0.158418 0.00925676 -0.198771 -0.184042 0.0143199 -0.169959 -0.222517 0.00713647 -0.196023 
-0.147468 0.0107919 -0.197333 -0.225027 0.00521818 -0.186341 -0.215155 0.00878299 -0.189431 
-0.186645 0.00543601 -0.187678 -0.156608 0.00478627 -0.189872 -0.141763 0.00494495 -0.191462 
-0.234997 0.00497123 -0.188989 -0.197461 0.00913461 -0.189421 -0.165283 0.0133262 -0.189596 
-0.244951 0.00547575 -0.185633 -0.206362 0.00521011 -0.185825 -0.19418 0.00507859 -0.180897 
-0.176506 0.00536742 -0.18768 -0.149307 0.0111309 -0.187373 -0.13548 0.0076526 -0.184013 
-0.217188 0.00553159 -0.179138 -0.204317 0.00515229 -0.175257 -0.167138 0.00505017 -0.184139 
-0.147231 0.00508908 -0.178911 -0.130014 0.00538958 -0.0272574 -0.223706 0.013698 -0.178727 
-0.211132 0.0129743 -0.176037 -0.201499 0.0144758 -0.178442 -0.169906 0.0136626 -0.177279 
-0.157821 0.0078418 -0.18027 -0.195455 0.00494173 -0.170624 -0.175556 0.00510728 -0.176352 
-0.165329 0.00532422 -0.174204 -0.178127 0.0096605 -0.00151534 -0.185231 0.00761771 -0.177305 
-0.188365 0.0146041 -0.0801542 -0.15337 0.0107352 -0.171061 -0.223968 0.0110477 -0.168734 
-0.208738 0.00636287 -0.165963 -0.188705 0.00733169 -0.163673 -0.149209 0.00504396 -0.164009 
-0.140038 0.00798917 -0.166966 -0.173187 0.0143859 -0.167849 -0.244086 0.0107045 -0.161444 
-0.233323 0.00525054 -0.163262 -0.217329 0.0047951 -0.160503 -0.198074 0.00832811 -0.159939 
-0.179883 0.00477249 -0.159787 -0.167858 0.00484149 -0.161794 -0.147618 0.0143802 -0.160356 
-0.206935 0.00899759 -0.0435174 -0.237413 0.00664886 -0.150465 -0.214467 0.00471426 -0.148099 
-0.189475 0.00886805 -0.153839 -0.167737 0.0144729 -0.153897 -0.154527 0.00735332 -0.154392 
-0.144101 0.00479434 -0.154143 -0.229564 0.011465 -0.154551 -0.200915 0.00946431 -0.149641 
-0.189728 0.0121982 -0.031304 -0.245004 0.00525844 -0.144109 -0.176004 0.0084148 -0.150766 
-0.214197 0.013032 -0.199231 -0.161289 0.0114061 -0.144739 -0.139015 0.00963517 -0.147031 
-0.235443 0.0050839 -0.140577 -0.223385 0.014152 -0.1436 -0.209427 0.0124292 -0.141209 
-0.199561 0.0100389 -0.139694 -0.185064 0.00608296 -0.145269 -0.151409 0.00562835 -0.145016 
-0.227167 0.00534331 -0.133691 -0.17831 0.012314 -0.13657 -0.167387 0.00471958 -0.137776 
-0.135287 0.00482775 -0.137212 -0.227362 0.0142499 -0.190859 -0.186937 0.00558863 -0.135287 
-0.159304 0.0132341 -0.134734 -0.144387 0.00909444 -0.138503 -0.215763 0.00874647 -0.131367 
-0.204827 0.0106306 -0.131183 -0.177605 0.00816531 -0.127461 -0.151057 0.00531136 -0.132034 
-0.235055 0.00556364 -0.127288 -0.22606 0.014125 -0.0331406 -0.168911 0.0140817 -0.132138 
-0.24497 0.00499468 -0.126132 -0.16851 0.00624819 -0.122641 -0.222089 0.00629044 -0.122248 
-0.186731 0.012826 -0.125592 -0.157481 0.00990338 -0.125447 -0.147881 0.00844925 -0.123085 
-0.236316 0.00539032 -0.117182 -0.210165 0.00520339 -0.123676 -0.18993 0.00723742 -0.117818 
-0.177364 0.0068796 -0.117015 -0.157459 0.00757004 -0.115497 -0.245001 0.014514 -0.116403 
-0.19949 0.0130824 -0.121886 -0.244011 0.00517438 -0.110541 -0.221059 0.00525798 -0.112358 
-0.207659 0.0101105 -0.109758 -0.18536 0.0105774 -0.0111467 -0.203489 0.0122118 -0.00320858 
-0.145177 0.010147 -0.113611 -0.235574 0.00624662 -0.104984 -0.188261 0.0093571 -0.107564 
-0.177756 0.00507246 -0.106656 -0.16747 0.00501638 -0.108055 -0.1581 0.00489314 -0.104121 
-0.148204 0.00512895 -0.105515 -0.164553 0.0141235 -0.104752 -0.213441 0.00639445 -0.00512148 
-0.137268 0.0055547 -0.109363 -0.244976 0.0117718 -0.103128 -0.225765 0.00975606 -0.103497 
-0.215549 0.0124678 -0.104057 -0.203152 0.00641393 -0.0977815 -0.193153 0.00652527 -0.0974847 
-0.166918 0.00576445 -0.0976085 -0.183739 0.0101086 -0.0986998 -0.173847 0.0127865 -0.101223 
-0.231961 0.0121982 -0.0954182 -0.219547 0.00763408 -0.0958399 -0.176379 0.00477692 -0.0945821 
-0.151004 0.0072005 -0.0960962 -0.13996 0.01035 -0.0976599 -0.231081 0.00582812 -0.00266584 
-0.133967 0.00552775 -0.0077899 -0.187781 0.0103807 -0.0893635 -0.176692 0.0129223 -0.0885333 
-0.207703 0.0053852 -0.0886247 -0.197727 0.00476962 -0.0863176 -0.177323 0.00484922 -0.0827332 
-0.157548 0.00536236 -0.0885378 -0.146768 0.00488035 -0.0853792 -0.134231 0.0106428 -0.0883748 
-0.240654 0.00739203 -0.0907242 -0.167151 0.00760438 -0.0859132 -0.150191 0.013743 -0.0884777 
-0.244085 0.00491569 -0.0789977 -0.187322 0.00477628 -0.0810999 -0.243999 0.0144161 -0.0820466 
-0.232768 0.0104619 -0.0823145 -0.222269 0.00543359 -0.085865 -0.213493 0.0106652 -0.0818375 
-0.200201 0.0134714 -0.0797817 -0.153963 0.011078 -0.0796171 -0.222435 0.0113614 -0.0026813 
-0.234699 0.00493666 -0.073295 -0.208361 0.00500323 -0.0747984 -0.196516 0.00488883 -0.0763168 
-0.184409 0.00489818 -0.0715438 -0.17177 0.00760312 -0.0748969 -0.161989 0.00568217 -0.0762608 
-0.139749 0.00676503 -0.078522 -0.130109 0.00655631 -0.0751626 -0.223279 0.0124048 -0.076881 
-0.218201 0.00488333 -0.0721574 -0.160154 0.00482807 -0.0645494 -0.152229 0.00475249 -0.0720686 
-0.244844 0.0112787 -0.0713323 -0.201107 0.0112176 -0.0700349 -0.151883 0.0133399 -0.00767936 
-0.156556 0.0134903 -0.0701659 -0.146474 0.012886 -0.0716015 -0.13546 0.0127724 -0.0677739 
-0.244894 0.00504569 -0.0624817 -0.233353 0.00527413 -0.0612778 -0.206885 0.00489714 -0.0631164 
-0.192415 0.0048173 -0.0655633 -0.177167 0.00518782 -0.0640629 -0.146315 0.00587337 -0.0640611 
-0.134331 0.00478755 -0.0618213 -0.225791 0.00870365 -0.0668824 -0.21613 0.0107359 -0.0641155 
-0.198916 0.0103657 -0.0603502 -0.237529 0.0138055 -0.00489617 -0.215855 0.00482509 -0.0560547 
-0.180228 0.0113051 -0.0553545 -0.168988 0.00621918 -0.0578641 -0.152186 0.0103857 -0.0569135 
-0.236357 0.0140697 -0.0568078 -0.138085 0.0142234 -0.197718 -0.227379 0.00492713 -0.0533118 
-0.196082 0.00502838 -0.0524221 -0.159771 0.00767756 -0.0507415 -0.140503 0.00679331 -0.0535588 
-0.218845 0.0141564 -0.0539461 -0.206249 0.00799417 -0.0536126 -0.232713 0.0137473 -0.113277 
-0.228764 0.0149453 -0.0118427 -0.219348 0.00477488 -0.0464327 -0.17916 0.00963584 -0.0433295 
-0.165527 0.00492923 -0.0413501 -0.148907 0.00684246 -0.0480126 -0.236166 0.00795922 -0.0486961 
-0.187855 0.00961748 -0.0486204 -0.244372 0.0053049 -0.0431971 -0.15305 0.00474291 -0.0388765 
-0.136218 0.0056923 -0.0378796 -0.235807 0.00998981 -0.0386936 -0.189455 0.00476087 -0.0379423 
-0.144572 0.00552947 -0.00825368 -0.218277 0.00784348 -0.0360726 -0.207589 0.00515942 -0.0323853 
-0.171424 0.00561148 -0.0323413 -0.244816 0.00748993 -0.0331256 -0.200592 0.0119426 -0.0346654 
-0.161015 0.00820963 -0.0323887 -0.14641 0.012695 -0.0322662 -0.135766 0.0146603 -0.0330414 
-0.235418 0.00726955 -0.0281571 -0.225322 0.00477479 -0.0296999 -0.215925 0.0047932 -0.0262646 
-0.190216 0.005059 -0.024392 -0.181033 0.00472578 -0.0288284 -0.151997 0.00501772 -0.0289589 
-0.139947 0.00534822 -0.0284162 -0.152976 0.00520923 -0.00160041 -0.244998 0.00487527 -0.0201809 
-0.230641 0.00479728 -0.0197294 -0.200116 0.00563419 -0.0256701 -0.182002 0.00490656 -0.0187088 
-0.146479 0.00599433 -0.0206076 -0.135708 0.0120493 -0.0201596 -0.222693 0.0108493 -0.0203189 
-0.209447 0.0117759 -0.021488 -0.171417 0.00641807 -0.0218239 -0.158547 0.00798309 -0.0214748 
-0.21598 0.00479027 -0.0154692 -0.202865 0.00556814 -0.0117569 -0.153379 0.00519039 -0.0132322 
-0.162069 0.00485045 -0.00587277 -0.165282 0.00960348 -0.0142784 -0.24478 0.00635949 -0.0103264 
-0.224689 0.00554653 -0.0105255 -0.194367 0.0141667 -0.00701607 -0.173811 0.00505404 -0.011714 
-0.137506 0.0141609 -0.24501 -0.244831 0.0138107 -0.0249048 -0.164131 0.0139493 -0.0633584 
-0.244769 0.00475717 -0.000492534 -0.130145 0.00658375 -0.102149 -0.175684 0.0134496 -0.0277566 
-0.154952 0.0134238 -0.234571 -0.227314 0.0125259 -0.0468769 -0.154218 0.0139333 -0.0424851 
-0.13377 0.0138585 -0.133052 -0.172485 0.0138244 -0.111435 -0.206596 0.0136079 -0.191192 
-0.210936 0.0142041 -0.0719799 -0.216749 0.0141467 -0.0441709 -0.186838 0.0149767 -0.200907 
-0.180603 0.0148887 -0.182469 -0.235096 0.0147967 -0.0713448 -0.213533 0.0136585 0.195639 
-0.167941 0.00940038 0.001075 -0.145962 0.00501384 0.00665142 -0.137016 0.0051538 0.00198997 
[...]
POINT_DATA 4243
FIELD FieldData 3
id 1 4243 int
1341 868 1774 2638 3543 1003 3482 538 1792 
3489 451 3551 4033 1783 445 917 2202 3494 
1477 3930 2210 3472 12 2627 3187 7 3631 
870 453 484 2337 4066 3061 2217 220 2178 
2218 3484 471 89 553 2216 3063 3922 1761 
2606 3024 3190 2693 475 2185 3942 586 919 
1354 922 1350 8 47 2176 3025 907 481 
3056 2209 2628 590 3902 492 3466 486 464 
3495 909 1420 1353 177 606 2622 62 596 
1483 1512 3486 911 15 925 477 2607 535 
1413 2179 36 3899 3946 3938 1796 2325 3059 
465 904 3504 3926 2632 1338 3461 1778 3545 
473 54 1310 2256 3511 3077 1363 450 4034 
3033 59 1775 3927 1793 576 3049 63 899 
1348 2221 3134 2195 488 1321 1418 39 880 
181 163 491 448 58 2636 1762 38 1467 
2314 614 53 1837 912 2746 2644 906 1801 
1339 3163 898 10 2220 3532 2629 3031 3467 
2201 1798 877 602 2764 485 52 1358 3542 
581 2200 1362 1352 1322 3471 1849 1781 2180 
3943 2649 3189 3196 3985 1794 2299 905 1924 
872 1416 1411 3490 1788 2647 1357 961 1010 
1342 2699 3944 2211 3071 3992 1787 3508 3936 
3076 1838 3951 3630 1884 55 3159 3186 3459 
1856 1784 2309 1343 1795 169 1019 2648 3932 
1361 3947 483 1360 74 2196 1760 1751 3026 
35 3044 2645 3506 1340 3892 3904 608 3028 
1753 2756 1912 3050 1759 3 3919 11 2183 
3510 3468 467 3521 9 50 875 3104 493 
1904 3032 2236 176 2635 1333 2620 1950 3897 
889 1316 2205 3108 869 902 2223 914 3929 
3054 490 3047 2353 3643 951 883 1401 206 
3928 873 1356 3635 1054 67 935 634 3903 
482 476 22 874 924 3095 13 1347 2766 
3113 3195 3070 2599 1351 3180 3074 479 521 
3202 175 1908 1087 218 3470 2652 3949 2664 
2642 4026 923 548 30 3158 77 2650 2 
4103 3229 80 3975 209 2667 51 2617 3963 
1379 3093 2637 2656 3236 3222 3968 506 4082 
3512 3052 3520 2659 505 2378 1470 1327 1813 
2204 3971 4073 4015 1422 4071 2203 3106 43 
211 3148 3513 896 193 3973 890 3917 3918 
3145 2250 17 3213 1776 1827 2672 1528 3534 
882 1381 3480 1826 4104 93 931 92 1394 
1767 1367 2661 23 4094 947 499 1475 4083 
1501 2374 1069 1763 3535 29 567 2294 2669 
948 64 3955 2233 2363 3094 3957 888 4024 
1424 3907 1785 461 1833 1373 66 886 3522 
21 1823 3097 449 3099 1814 1061 1809 3518 
3088 936 3910 3981 2615 3912 1824 2241 549 
1505 3039 1830 2654 2229 1807 2663 944 18 
2244 3479 3101 2237 3524 1384 3527 4077 3087 
2677 1879 3111 2253 3517 1500 217 1771 514 
2610 1764 1382 1370 1063 2293 1376 71 2242 
1372 2612 2768 2724 1511 2226 2230 1862 3478 
1389 3657 1377 1819 2243 3082 3531 2722 520 
1962 24 3153 1378 3098 3109 929 3539 1429 
2651 2186 507 2234 930 2188 2707 1946 1816 
952 3911 456 27 1808 1821 95 949 3964 
458 2769 954 2231 934 3972 3961 216 3529 
1963 501 1770 3967 219 1817 1815 1768 4074 
3528 2674 1392 199 1423 884 3103 508 3976 
1871 500 2192 3481 2657 3204 72 895 3913 
3921 2224 3092 3966 457 1516 3915 1766 1060 
3083 1334 1491 503 3953 3085 69 3906 1071 
2232 3980 2189 942 3540 76 927 2608 68 
945 955 4111 2383 28 3538 460 523 3578 
2675 940 1374 3515 81 463 1062 84 19 
185 937 2240 1810 3475 559 1383 3107 1326 
3080 2228 1773 519 2349 1499 213 3648 1331 
3231 515 32 3498 3502 2597 3898 474 2277 
99 1476 525 2641 40 1313 3065 1755 2215 
3483 1344 1312 871 480 2640 1337 1777 1366 
2182 4004 1750 3460 2222 3034 3950 876 4001 
1323 1779 1757 1842 3038 1786 531 489 454 
3492 2184 2598 5 1317 1325 2736 510 3053 
468 142 2214 3055 901 3923 1320 1345 2208 
2207 3029 3509 1752 3064 3624 16 3057 3465 
444 2634 4050 2263 2177 2212 1797 37 3931 
3112 910 1758 2601 1445 1791 2623 466 4053 
162 2631 2602 96 921 1906 915 3487 2197 
3051 3893 3469 3894 46 3925 1349 3130 109 
3079 2199 3068 2752 879 1044 3116 1756 1375 
3896 3544 2219 881 1346 49 1031 3463 913 
3115 2198 2732 1355 2755 1923 1883 900 2328 
2624 2639 1898 1408 2646 903 45 3035 1406 
1 3060 3078 44 1315 2621 3607 2633 446 
3935 3147 2600 1900 1799 3503 1852 2326 1905 
3036 2698 1479 2334 926 3030 966 3120 1365 
3994 3182 1311 462 3491 2336 41 4049 487 
3940 2181 3982 3485 452 516 594 3464 2643 
1911 3037 3462 182 2604 1318 3561 625 1032 
1800 2625 1330 2379 3958 3069 1930 3041 878 
3516 1332 1802 1834 3493 933 42 90 1443 
3477 3924 558 1895 2655 4080 2251 938 2626 
498 2342 3978 3081 91 33 3141 3579 2679 
2235 3671 1328 3969 2225 953 3228 4013 215 
2611 128 470 4076 894 60 1388 3530 187 
2791 2239 2653 1937 892 4017 3979 3914 3965 
3537 1822 88 496 1947 4084 190 1371 194 
4106 950 86 3962 1520 126 2248 1820 3474 
3048 2280 3043 2227 3970 85 3952 1811 2254 
2191 628 495 1380 2665 1945 3230 643 1934 
2247 4091 561 3144 518 25 2678 224 941 
3046 94 2781 2676 956 3110 981 2356 494 
1508 1369 1385 512 3084 637 1336 509 1828 
3570 75 3523 1874 3533 2190 1335 225 1436 
459 2347 3100 2670 2783 3476 984 20 2723 
3086 3916 2614 887 3920 893 2809 513 2673 
3960 3091 2238 517 3045 1329 939 1393 3569 
3644 2613 34 1769 511 2668 79 1390 1812 
2660 1395 1772 2252 2193 3959 1391 932 1386 
497 891 916 2713 3956 2609 1359 3090 2658 
1397 1074 2666 1324 1803 4039 1009 589 1035 
3627 604 3604 149 1552 3933 447 3598 2012 
48 978 469 3126 2466 2042 725 155 579 
885 3891 3022 2680 3552 3622 3983 1854 1882 
2821 1016 3619 1922 61 3133 1319 2271 1026 
4064 3119 2329 1040 150 2754 2264 1015 1412 
974 1839 3986 2312 3760 1486 3610 2301 2315 
1447 4068 2308 1464 1410 2333 3560 1480 103 
4041 144 3075 178 3183 3298 2020 4173 1402 
3628 2259 3554 573 578 1037 574 1845 3602 
3178 1789 3496 1749 1896 1314 151 1012 2462 
1918 3895 740 245 2697 104 4037 1027 1894 
106 1846 2749 962 1038 1398 1917 977 2327 
2762 4047 1754 2311 1462 161 1909 973 3623 
731 4003 2757 1890 183 1058 2316 3591 2696 
970 612 4031 3201 1919 959 575 3122 3129 
3173 4002 1888 598 3027 186 172 1595 1913 
3996 1030 1024 4054 2733 108 156 281 3128 
1018 572 2690 4187 2398 3596 2691 170 957 
173 1782 528 1579 4190 2387 2265 2339 1022 
2307 101 3131 530 3555 3124 3692 3310 3181 
3121 4045 3615 675 1654 2305 1850 1843 2684 
3592 1452 3548 4115 2771 2695 1085 1041 1920 
148 3603 545 544 2861 1409 4038 1853 1886 
2725 599 1005 3984 2257 3590 116 1456 1466 
4052 2274 3185 3193 2260 4051 1482 3308 2009 
2213 1765 1117 1857 3198 532 2310 4062 2726 
2685 1851 1450 180 3605 547 3565 3686 4035 
1097 1013 3168 504 1039 3595 1840 4172 3690 
3621 3613 1043 4007 3557 4048 1430 1029 110 
3553 1444 3160 542 239 3191 1848 3612 3062 
1472 2396 555 4 2306 4046 2727 3172 157 
4040 1637 745 3549 4108 2322 2344 308 4055 
2822 1459 4069 1078 3233 3629 3175 3114 2276 
1400 3058 2041 4078 2270 3559 1510 82 3167 
184 3205 639 1914 2702 1405 2354 2922 346 
3993 2758 3733 192 601 112 2803 1471 1461 
971 2694 2753 2321 1017 3599 2340 1468 527 
600 1034 1004 159 714 4030 526 2023 107 
3171 537 3988 623 3248 2255 3998 2603 3125 
1415 179 584 3127 2742 4042 3654 577 533 
154 3364 2731 1048 1437 963 1832 146 2605 
1100 585 2740 3995 3212 3574 1473 2278 2319 
57 2786 618 1042 1889 195 975 1865 204 
1407 2292 4006 3617 982 1495 1938 3908 1119 
3650 1188 223 2630 3146 3207 3096 1944 1052 
4009 120 133 122 1025 4109 630 125 1861 
4014 1932 1067 1526 3241 2352 653 2366 1428 
3716 695 2775 3634 1565 3333 1046 3224 3662 
2784 3673 4008 315 4223 757 136 2706 3668 
2793 2288 3137 100 3573 1926 1502 2788 3658 
1942 1868 1878 4025 4010 1881 124 2719 4150 
2711 565 2497 641 1955 2300 4139 551 1966 
1804 1951 636 1876 3663 2384 655 3203 1047 
4081 3646 983 2298 2847 1506 1196 3040 1081 
2703 3641 1082 3585 321 2291 563 1438 2355 
229 3637 203 205 3571 2704 570 1939 340 
616 3216 4212 1435 2720 1953 4089 552 140 
3636 1059 1084 1574 1497 2773 4011 2362 3642 
135 2297 4100 3234 2777 1057 1442 651 3645 
3188 2245 1941 632 3135 569 645 2373 207 
4086 212 647 997 78 1805 3139 3238 1000 
2799 991 2772 2296 502 1515 649 1055 2285 
656 1927 619 571 3589 1079 2086 1965 3575 
2800 3140 1065 137 617 2787 3581 1933 2371 
202 946 994 1866 564 4227 1863 1514 3102 
2712 2359 3225 3142 3143 1928 3586 31 626 
1086 3149 2279 1956 1077 556 3576 1049 1527 
4085 1959 644 778 3670 4098 1518 131 988 
2794 1490 3588 615 1001 4075 455 1433 566 
627 562 2714 65 2790 3536 3647 1524 648 
1496 1940 4097 1877 143 995 1960 1211 622 
1961 4023 4107 268 638 4028 134 928 2616 
1509 3519 1869 4101 4136 1070 1076 2778 2056 
2779 2808 2505 1489 2187 4110 4027 2375 1872 
4102 2002 1504 986 4215 3661 1488 554 3977 
2246 3632 640 201 3577 1493 620 1991 1202 
2782 3105 1916 3242 4216 3566 3206 1925 993 
3909 3783 568 342 3157 1943 980 2348 1935 
3633 4029 1659 228 1492 221 3582 1921 2317 
1995 1867 607 1455 3164 603 2451 1109 2759 
2763 4036 4058 3166 1403 2730 1451 3620 2324 
2464 2750 3118 4000 2681 3245 2302 1404 3616 
3547 3473 4005 1841 174 4070 2738 3263 2760 
2729 529 2728 1448 1028 145 613 3594 967 
3556 2267 979 1011 3728 2261 3761 306 2331 
3937 1907 1449 1460 536 4065 3067 3197 1023 
152 4061 4057 129 3215 610 3987 3177 3609 
4060 3729 1899 1902 1915 3606 3905 1446 1592 
2040 2761 3300 1844 2407 524 2272 2686 1474 
546 3169 588 2744 2701 1903 968 1163 1790 
2258 295 2275 597 2268 2269 3614 964 2376 
1897 3997 2206 4067 4043 1419 2470 2320 1893 
595 3948 2748 3990 4169 167 2734 908 541 
1484 4198 605 4171 1887 147 543 539 969 
117 918 3750 2687 1036 3174 972 1971 1014 
3307 2266 1885 2700 168 2341 3608 1858 1417 
3625 198 6 3170 609 960 2343 102 593 
3618 2351 976 1006 3709 3611 1891 196 1454 
3562 2889 2692 472 652 1396 3209 70 105 
98 2295 1453 996 1399 587 592 583 2682 
3939 3558 3220 2709 3258 83 3217 191 1864 
2688 3567 1957 222 1948 1936 2249 3639 1210 
3218 2290 4087 123 3784 1033 1002 987 3672 
3665 189 3194 3235 965 118 1494 1425 130 
2287 1521 2286 1619 2419 2933 3791 698 1053 
2368 2194 1517 1131 654 1426 1051 1387 2804 
4090 3138 2717 3649 4012 1573 4079 3154 2481 
635 113 3703 1836 560 1825 3659 2415 3221 
2350 3208 1498 4020 943 208 642 2380 3781 
1080 2718 2282 1368 153 3711 1432 200 3237 
2662 2069 2425 1431 127 1831 3587 2006 1954 
3653 2705 694 1123 1064 3223 1990 4018 2780 
121 329 2710 2785 2801 2074 210 214 3954 
3666 3525 2792 3211 1873 1075 2841 3526 3214 
1441 2708 550 3240 2807 1427 1073 2671 1949 
998 4092 633 3227 3656 2774 139 2281 2358 
1050 4112 3583 3660 2377 992 3568 1056 3136 
3669 227 985 1434 3155 2364 621 2795 1870 
1066 2805 2386 629 631 3708 2501 2283 522 
1522 2907 2802 138 4022 3156 990 730 166 
2824 1855 1986 3252 1267 386 3292 4282 2818 
3301 2010 244 3314 2453 674 3721 705 275 
2403 710 2013 3564 3731 3294 310 158 3991 
1147 3600 1174 4164 4188 2814 3244 2444 282 
3755 3316 2875 2810 1706 2143 2767 729 171 
2745 2442 248 247 4132 1981 367 2434 160 
3184 663 2765 4177 3328 2318 667 3254 708 
4165 1546 1007 2954 3261 1835 2037 2862 1542 
2019 3313 2447 1093 2737 1021 660 3251 298 
3293 4197 1973 2876 3846 4121 669 2026 784 
3322 2400 3290 2014 711 3304 3684 4191 1169 
2827 2007 3740 1155 662 2819 1969 3255 2036 
2303 1617 4130 240 3330 232 4120 3730 3266 
307 2747 2828 111 3677 1548 3687 4118 257 
4166 1166 1602 3291 4122 1598 1578 2894 1615 
2542 738 1589 3737 311 238 3732 3742 3306 
734 1605 671 1982 3754 2405 707 1591 3165 
1968 3597 3695 3265 720 4117 1158 1976 814 
1988 2441 1596 1531 243 299 724 251 1149 
3751 2452 958 2457 3727 1535 165 2404 3326 
1593 3745 1168 733 1590 1138 2735 2435 2433 
3593 4167 1478 611 1599 4182 2440 2866 4160 
3253 2262 249 1142 2338 1170 1008 1146 2888 
2811 280 305 2878 3845 2461 666 2015 2863 
1144 3200 1107 736 301 2471 2990 580 3626 
3683 1088 2874 1641 4126 2304 1173 277 3758 
1457 2741 540 3838 4185 2021 3317 283 3296 
1150 1156 3723 821 2332 3794 2394 4159 2859 
1157 1096 2891 2877 2027 2813 309 2467 290 
3260 1975 4105 188 3199 1538 2399 2018 2860 
4127 2751 722 2868 4312 337 3682 3688 3250 
716 287 4287 1537 3694 2881 2045 3325 3763 
1101 4296 1160 2869 1847 4113 4141 2437 2367 
4119 2330 723 1143 250 236 1929 4184 404 
1901 2008 1133 255 2080 4174 1165 385 3563 
1608 300 659 2890 4149 3772 1208 1141 2393 
278 3753 119 2689 2895 2829 3375 670 719 
706 2445 3162 713 1139 1581 534 2071 3681 
2028 1481 2313 2468 233 4162 1585 1072 4218 
3151 1245 3353 1586 1539 2360 1566 3423 1440 
680 1609 1571 4145 3361 697 1181 2914 1167 
3287 2854 1974 1197 3680 4099 3275 999 265 
773 2088 1612 3273 1194 267 1603 3264 349 
3280 3278 3685 1159 1179 3828 259 2507 2087 
4231 4161 1136 2064 789 2413 4234 1998 2289 
1126 2479 3702 4138 4263 3799 689 1113 3336 
3806 2068 1563 2463 1127 2899 1092 761 1068 
3640 2930 2060 3999 2079 3348 2149 2916 2502 
1192 3256 687 2480 330 2001 2054 2845 691 
2421 4203 235 261 4230 4206 4044 646 2485 
2915 4225 2003 2101 1558 2474 4170 2917 1556 
2504 2049 1646 4200 1421 3572 4237 3277 760 
335 1124 1650 2929 1994 3349 765 350 1647 
380 3719 684 693 443 686 776 4222 4156 
4213 316 3271 2109 2833 1653 2500 3773 2420 
1130 3788 3824 1132 4146 2416 2414 2913 3354 
3707 4221 1183 4202 679 3274 2057 4224 1727 
4143 2935 2856 1190 2051 3338 1214 3444 1621 
1212 1289 1651 1723 2428 317 1129 2370 4236 
1620 1203 2498 318 3698 324 1184 2918 3803 
3366 2513 696 3823 3358 690 3365 2062 3279 
3710 3796 2070 3239 3356 3786 1177 1631 3652 
4021 2926 3769 2494 2067 3346 2510 2431 382 
1575 2424 766 347 775 3283 2796 1623 3371 
322 1215 2506 3651 756 3713 1645 1185 2078 
2427 2846 4211 271 1572 2410 2511 258 2478 
352 2770 3701 4144 1643 3765 1652 4096 1628 
989 1439 1564 4199 1640 269 2514 1880 4155 
1952 328 1560 3284 1658 3718 326 3288 1958 
3369 1120 4220 2928 2852 1875 3447 862 1860 
1121 345 1629 3779 771 1503 3580 624 3332 
2053 1559 3019 1513 2853 4095 1639 4235 3276 
692 1992 2595 3272 2052 4153 344 3150 1507 
699 2568 3350 254 2912 1635 3801 2361 650 
1200 1648 2488 1655 2076 1176 1112 2059 4226 
1996 4229 4217 3152 1999 3286 2346 1487 3267 
2937 1083 1638 755 4233 2512 2058 4318 3795 
2934 4205 3270 769 4325 1736 4152 770 334 
3638 1967 3282 2455 4142 3335 3764 2449 1576 
768 320 1095 2797 781 2910 557 3785 2923 
256 226 2509 2085 327 3341 1195 270 2103 
348 264 1128 2904 2503 4195 1588 3413 274 
1465 1910 2323 2871 1582 4196 2896 2432 4063 
3372 1972 2017 2273 97 1108 1610 2044 4175 
1103 1110 3676 703 1544 285 2870 1616 3321 
3601 1577 709 2873 2335 2884 4186 2397 296 
1604 3289 3319 668 2816 2812 4163 1140 3161 
1534 291 1161 1099 704 2408 1547 665 3679 
3302 2872 3407 2879 2564 2683 2034 2473 1469 
2886 2743 701 2867 3746 1205 1892 1148 289 
3176 4032 1094 4192 2817 1688 4284 1987 3674 
4125 3132 1532 1530 3989 2448 3247 3246 3747 
1154 2459 3689 2883 3744 314 2456 1135 4056 
3762 1162 739 273 2098 3318 2739 2390 2880 
1463 2465 3546 1983 293 1536 2388 3323 3756 
304 2823 3410 3309 3693 3257 2043 114 732 
4194 2454 1222 1134 4183 727 3726 672 2519 
4181 2446 3774 2892 3743 3249 1583 115 3738 
3295 1102 2831 2402 661 1414 1711 3311 164 
1718 677 4129 1551 3759 1731 2902 1458 246 
3324 3697 4189 1632 2991 715 1540 1529 2389 
381 297 726 2826 231 4176 2039 3232 2436 
3117 2472 2905 2084 2487 4131 2022 2460 2035 
3379 3281 4180 1485 3749 3422 1978 1090 279 
2024 4158 4093 2489 3243 4059 3804 3259 4228 
3334 2903 2046 777 2882 728 338 2089 2715 
2164 2850 1977 2508 3331 3821 2005 2369 2365 
1642 688 3798 3340 2911 1206 332 132 1237 
2381 1286 3836 2798 582 1238 3691 3345 2429 
2382 3584 3351 2154 3219 1213 712 420 1677 
325 2573 2925 1859 2050 2865 253 2173 4148 
3343 2066 4316 2806 1567 3342 2061 2789 2776 
4072 339 1674 2721 2844 2418 3360 2900 303 
1525 272 3778 2839 1300 242 2938 2484 3655 
3226 1644 4147 3352 3664 1562 1931 3771 3706 
3362 343 774 3714 331 762 759 767 2055 
3192 1568 2716 2385 4154 744 2842 3782 1198 
764 2908 2837 3667 1201 681 845 748 3768 
2357 4210 3775 4016 2901 4088 2927 1625 4157 
2083 1649 1045 3700 3359 4019 743 1630 1627 
3720 1178 1523 266 752 2284 2345 1122 2372 
1199 1656 1193 1114 141 3712 4137 3337 779 
3436 742 1997 2843 3363 197 372 678 3819 
763 1553 3449 1115 2919 3451 1626 2000 2906 
1633 355 3704 319 2065 2939 333 4151 3303 
230 2970 3383 700 2117 2549 2144 3412 3399 
1989 1255 4279 836 1979 4291 4135 2141 1265 
3839 3809 4179 2950 2898 2562 2038 3739 3725 
2565 1228 2135 394 276 3315 4178 3409 2543 
1985 2099 1980 2391 1695 3849 2122 4247 1703 
4245 2115 395 1550 1277 1266 702 3832 2968 
3854 1268 400 388 3424 3752 4273 3843 358 
1271 2563 3829 2033 3811 2128 237 1218 2025 
1243 2541 1224 2552 3403 3748 4276 2544 3377 
807 2556 3856 4275 364 4292 3842 3374 1226 
3380 4168 2864 810 2942 829 812 2401 2138 
4299 411 2030 2527 392 826 1611 3408 813 
830 840 2974 2545 398 1712 2095 3382 3844 
2133 2858 1153 2132 2521 2524 3734 1715 2439 
1252 234 363 2142 3381 1710 286 292 4128 
2952 2969 1672 1253 3384 2830 1707 2547 302 
3860 4302 3376 1248 408 4240 1258 1689 1668 
2951 816 1145 2152 313 2167 1217 1600 4244 
4281 1278 2975 2469 2131 822 1580 1662 2140 
2987 4297 782 2537 3858 1669 827 390 2522 
2116 825 4294 1970 2546 406 3833 3807 3840 
1700 1665 1693 1601 2946 1272 2118 2129 824 
3805 399 2092 1175 3018 2943 783 3847 2940 
1984 4124 3812 361 3427 3835 1663 3428 3417 
2982 1260 3857 2820 1699 1225 438 359 1098 
1613 3415 2893 356 1698 2941 2120 2557 1708 
806 402 809 393 1221 3425 4285 3329 1545 
2885 2517 1261 1091 3741 2986 4280 4298 2985 
2526 3368 2815 1223 2406 403 4289 820 2897 
664 3724 657 2981 4328 1283 1713 4301 2124 
4261 795 369 3418 1263 1254 2450 780 3881 
854 3848 2097 796 4114 1151 2967 4242 2139 
1250 4193 3320 1246 3441 1709 658 4251 718 
1257 2047 4241 1701 2392 387 3831 2983 2944 
3299 2548 1664 3421 2121 3416 1164 2011 2515 
2945 2031 2550 1137 3852 838 3851 2832 3865 
405 1249 2953 1152 3312 1303 3003 3395 2834 
3458 1308 1259 360 4269 4309 2100 2536 375 
2412 2958 2984 2107 867 4238 676 2104 817 
2157 1704 1614 4272 4317 1555 3815 2992 3766 
1666 440 819 2964 864 3817 1204 2165 2168 
1678 3394 3884 431 4264 3443 4320 1622 3789 
2994 4307 848 2995 4331 2169 3419 2532 2483 
1557 2528 2160 2587 3021 1561 2921 850 741 
859 3874 1569 1683 1295 413 2976 435 1241 
2530 1732 1216 3454 1741 2579 4259 793 1993 
2955 2538 4306 2838 3016 2909 377 427 1570 
4326 3014 419 2499 370 3437 2075 262 3800 
860 3386 383 804 373 794 3439 3008 3792 
1207 2534 1290 1738 2554 3393 847 2491 374 
1242 3357 1685 1679 354 1180 853 4332 3867 
2490 3446 4305 2162 3814 2148 1724 3770 2533 
754 2430 3440 2004 3429 3015 4256 682 2105 
422 1719 4313 1294 434 1744 2961 1748 3822 
2426 2495 2172 379 1743 801 416 3370 846 
3715 2496 3438 747 3020 3012 2111 1118 1297 
263 2146 260 2590 421 2476 2569 2417 1624 
4266 3887 2584 2113 2492 430 2957 2580 2158 
750 1636 863 4258 1733 1304 2423 2535 3780 
3776 839 3868 1116 3017 3826 423 4208 802 
1306 2102 1728 3448 4303 414 1302 2163 3825 
3442 2571 1186 2960 3705 2575 753 2848 4209 
1737 4329 749 1745 1111 841 2936 2594 3876 
3455 2411 1239 2477 856 1721 2567 3388 2851 
4314 2155 3011 4262 844 417 2566 3878 1244 
437 1729 2166 2159 1301 2583 3269 803 3007 
3004 1299 3886 2475 3434 376 2581 432 2529 
4260 800 2110 3872 426 3456 378 3367 3879 
3445 3453 2589 1634 2997 3390 2171 441 1682 
2081 418 2993 758 4239 3391 3013 1734 3397 
1676 3777 1726 3863 3006 4310 4271 3431 1189 
2156 2486 362 4319 2592 2150 2586 1742 2582 
2574 1305 2119 2170 3880 3355 772 4219 1240 
2422 3344 1234 1722 3861 442 1291 683 1274 
857 4321 2998 858 371 3010 1587 1684 837 
1554 1233 2106 1730 3009 1281 401 1673 4253 
1717 1584 1661 1660 791 1597 1541 357 2409 
1256 2029 2972 2979 3850 834 1269 1276 2965 
2523 2126 3678 1104 4133 4116 2016 2175 2948 
1667 2947 1219 4254 3262 2988 3426 3808 815 
828 1702 1543 3841 3735 2963 1171 3378 1696 
4250 2134 811 4274 1670 2956 407 3404 673 
3402 831 2145 3373 368 2553 2123 4134 1106 
1220 1705 2114 2539 4246 788 737 1697 2048 
1671 3305 2825 2561 1606 4249 832 3859 1275 
3834 365 2094 252 2125 4293 241 2438 2855 
2971 786 3855 3400 4255 2973 1716 3675 3406 
3813 4295 3327 396 3736 1262 3420 2531 1089 
2137 1594 2093 3297 412 833 787 2887 284 
785 3757 1105 1533 2518 2443 790 1691 2136 
2130 2127 1172 2996 1720 389 717 2032 2520 
409 1607 1714 3405 2980 1270 835 3837 2090 
1694 2989 2096 2559 4283 391 1549 721 1692 
3347 4278 384 397 1229 4288 2560 2978 1264 
1690 842 3722 2558 1251 3873 4277 2949 3853 
2977 1227 288 410 4243 2966 3810 3816 1739 
4265 849 424 294 823 341 1740 3385 1280 