# vtk DataFile Version 4.0
Generated by LIGGGHTS
ASCII
DATASET POLYDATA
POINTS 4196 float
-0.232383 0.00477453 -0.244753 -0.170979 0.00810852 -0.245008 -0.161363 0.0144244 -0.241654 
-0.152495 0.0110423 -0.245004 -0.139715 0.00979016 -0.244937 -0.169375 0.0137088 -0.186252 
-0.131772 0.00940816 -0.197424 -0.138152 0.00756981 -0.00536755 -0.244529 0.00428249 -0.244436 
-0.197623 0.00926732 -0.242091 -0.187755 0.0119212 -0.238363 -0.228139 0.00958066 -0.23704 
-0.214925 0.00594703 -0.2401 -0.244935 0.012932 -0.177825 -0.13026 0.00440378 -0.240276 
-0.244997 0.0094796 -0.231927 -0.218954 0.0022672 -0.231644 -0.205582 0.0093098 -0.23486 
-0.188427 0.00949147 -0.228615 -0.172705 0.00754428 -0.235181 -0.158737 0.0023314 -0.230164 
-0.142654 0.00344951 -0.236645 -0.201676 0.0135935 -0.204359 -0.16581 0.00801247 -0.03949 
-0.236029 0.00752139 -0.227805 -0.198089 0.00988822 -0.224454 -0.16884 0.00662343 -0.223394 
-0.201727 0.0128941 -0.0146297 -0.211917 0.0146884 -0.148353 -0.229808 0.00913738 -0.0111887 
-0.201196 0.0105364 -0.0263416 -0.178445 0.0109193 -0.221873 -0.170829 0.0149867 -0.228777 
-0.194165 0.0122703 -0.0351325 -0.218234 0.00783267 -0.0294105 -0.243709 0.00994454 -0.221851 
-0.224128 0.00877906 -0.222851 -0.208142 0.00817545 -0.224606 -0.187339 0.00753361 -0.218698 
-0.140826 0.00791678 -0.220662 -0.232845 0.0142926 -0.219274 -0.159352 0.00935691 -0.221797 
-0.148167 0.0094124 -0.0172175 -0.21612 0.00530902 -0.21695 -0.205453 0.00656211 -0.2136 
-0.194001 0.00733168 -0.211229 -0.20945 0.0126042 -0.113456 -0.214477 0.0125709 -0.231638 
-0.137697 0.00748871 -0.0392168 -0.178753 0.00640198 -0.212765 -0.168736 0.00661732 -0.213406 
-0.135048 0.0136259 -0.214086 -0.244259 0.00709583 -0.207253 -0.230494 0.00862139 -0.210866 
-0.218642 0.00837565 -0.207516 -0.133127 0.0043984 -0.207779 -0.244994 0.00841358 -0.00402207 
-0.209389 0.00530483 -0.0123497 -0.144064 0.0106783 -0.210891 -0.236745 0.004424 -0.197406 
-0.225173 0.00411458 -0.200789 -0.204332 0.00386708 -0.203943 -0.183739 0.00505064 -0.203763 
-0.173815 0.00224817 -0.204435 -0.155464 0.00290296 -0.203301 -0.192117 0.0113316 -0.202253 
-0.186306 0.00934821 -0.0290509 -0.162141 0.0122329 -0.204537 -0.244999 0.0131184 -0.196178 
-0.213096 0.00922714 -0.198628 -0.204262 0.00817936 -0.193997 -0.193124 0.00677022 -0.19342 
-0.183783 0.0103726 -0.193279 -0.172668 0.009592 -0.196571 -0.162683 0.0127948 -0.193624 
-0.138928 0.0148303 -0.202582 -0.244976 0.00599872 -0.187362 -0.219545 0.00566267 -0.190998 
-0.143361 0.00626138 -0.194835 -0.170862 0.00857665 -0.00716731 -0.229307 0.0065733 -0.186746 
-0.225907 0.00465188 -0.0235369 -0.156409 0.00888178 -0.0351057 -0.211711 0.0106213 -0.186287 
-0.201676 0.00857792 -0.184334 -0.192365 0.00400753 -0.183845 -0.182408 0.00513239 -0.184561 
-0.172897 0.00442744 -0.187579 -0.156257 0.00759545 -0.187586 -0.133685 -0.000401698 -0.184497 
-0.237349 0.00692938 -0.180715 -0.141181 0.0120895 -0.186811 -0.220177 0.00874806 -0.18029 
-0.210191 0.00647322 -0.177102 -0.166683 0.00442854 -0.179304 -0.144056 0.00286026 -0.179919 
-0.198629 0.00220126 -0.0313855 -0.234853 0.00247282 -0.0278386 -0.218795 0.00420212 -0.0162112 
-0.134836 0.0122311 -0.105415 -0.233248 0.00847322 -0.171602 -0.223338 0.00908148 -0.169967 
-0.195872 0.00636476 -0.174787 -0.176067 0.00921609 -0.176167 -0.155749 0.0081337 -0.17659 
-0.158972 0.00948945 -0.0136267 -0.186558 0.0107411 -0.17596 -0.138315 0.0127764 -0.170901 
-0.244977 0.00840267 -0.167637 -0.213642 0.0109229 -0.167 -0.204427 0.00749472 -0.168995 
-0.17841 0.0101825 -0.166071 -0.163072 0.00448393 -0.169642 -0.143151 0.00439908 -0.167845 
-0.130619 0.00648808 -0.166142 -0.187236 0.002047 -0.00969056 -0.190056 0.00815406 -0.16686 
-0.169567 0.0134009 -0.169554 -0.158141 0.013961 -0.168823 -0.187434 0.00463866 -0.0381605 
-0.242689 0.0108042 -0.157922 -0.233894 0.0127566 -0.162494 -0.223822 0.00895842 -0.159865 
-0.210086 0.0112777 -0.157625 -0.199725 0.00886924 -0.160048 -0.168958 0.00378271 -0.159179 
-0.157865 0.00553472 -0.158355 -0.147898 0.00496723 -0.15907 -0.244635 0.0054203 -0.0152178 
-0.137556 0.0117182 -0.160803 -0.193635 0.00481956 -0.152314 -0.182624 0.00883608 -0.157061 
-0.244926 0.00617398 -0.026125 -0.198681 0.0137742 -0.0041494 -0.228139 0.0135005 -0.151712 
-0.208311 0.00307071 -0.022524 -0.200631 0.0130159 -0.150908 -0.189784 0.014773 -0.151875 
-0.15224 0.0143637 -0.153432 -0.160008 0.013407 -0.0232806 -0.244998 0.0130515 -0.148435 
-0.235967 0.00857725 -0.147322 -0.219499 0.00625268 -0.148535 -0.208469 0.00244163 -0.149503 
-0.177319 0.0141149 -0.1503 -0.159208 0.00808794 -0.146553 -0.147177 0.0116119 -0.145241 
-0.138545 0.012421 -0.150819 -0.194539 0.00998785 -0.143473 -0.167357 0.014542 -0.149366 
-0.16156 0.00599024 -0.0042696 -0.181294 0.00807818 -0.143363 -0.171134 0.00716303 -0.142438 
-0.130172 0.00978442 -0.141651 -0.180155 0.00675809 -0.00247637 -0.226199 0.00818026 -0.14092 
-0.215999 0.00983363 -0.139859 -0.20422 0.00808667 -0.141637 -0.143851 0.0141527 -0.0337459 
-0.133968 0.0137225 -0.0300001 -0.186906 0.00486731 -0.0197351 -0.244073 0.00686579 -0.138807 
-0.192727 0.000233819 -0.139156 -0.174697 0.00801684 -0.133131 -0.209826 0.0141311 -0.0298898 
-0.144301 0.00982198 -0.135797 -0.226342 0.0123987 -0.194444 -0.196967 0.00502083 -0.0103752 
-0.234352 0.00912653 -0.133048 -0.145707 0.00411216 -0.0294586 -0.208034 0.0103078 -0.0031796 
-0.244812 0.0084813 -0.127426 -0.203172 0.0072495 -0.131659 -0.193434 0.00454914 -0.128589 
-0.208344 0.00470756 -0.0333241 -0.153311 0.00938037 -0.130107 -0.214295 0.00824151 -0.129692 
-0.1832 0.0122294 -0.129861 -0.217272 0.0127905 -0.00739696 -0.168789 0.00658851 -0.017942 
-0.178758 0.00556707 -0.122242 -0.168014 0.00866929 -0.123324 -0.206641 0.00937593 -0.122513 
-0.144446 0.00995252 -0.124044 -0.177575 0.00822133 -0.024188 -0.244904 0.00565394 -0.11753 
-0.187976 0.00640298 -0.117401 -0.159889 0.00974646 -0.117533 -0.149122 0.00563818 -0.115968 
-0.226683 0.0128736 -0.120555 -0.216158 0.0131198 -0.121066 -0.19726 0.0118451 -0.118516 
-0.154291 0.00479314 -0.0241786 -0.236304 0.00962259 -0.0188793 -0.203977 0.0137816 -0.0399609 
-0.23642 0.0108068 -0.114445 -0.198319 0.000718051 -0.112571 -0.175504 0.00876009 -0.112867 
-0.13898 0.00433762 -0.111328 -0.224081 0.0135002 -0.110842 -0.188826 0.014908 -0.108626 
-0.166301 0.0125851 -0.108548 -0.155668 0.0123907 -0.108833 -0.135663 0.0140468 -0.115375 
-0.234628 0.00967454 -0.104677 -0.216258 0.00850506 -0.107073 -0.179037 0.00236254 -0.104389 
-0.160268 0.00833075 -0.0998645 -0.149715 0.00513274 -0.10518 -0.244502 0.00955442 -0.106868 
-0.145037 0.0145478 -0.110349 -0.192532 0.00465927 -0.101248 -0.169086 0.00169504 -0.100113 
-0.141275 0.00160534 -0.0989254 -0.132697 0.00633003 -0.0882346 -0.14769 0.00682348 -0.00245797 
-0.207627 0.0112886 -0.102519 -0.150479 0.0126273 -0.0962207 -0.201537 0.00547606 -0.0939291 
-0.149392 -0.000324769 -0.0933301 -0.232683 0.00979159 -0.0940388 -0.223414 0.0126458 -0.0912788 
-0.196683 0.0143404 -0.0919014 -0.178345 0.00622084 -0.0947941 -0.167618 0.0084547 -0.0928855 
-0.213367 0.00317218 -0.0908632 -0.19093 0.0059365 -0.0898603 -0.163004 0.0030725 -0.083791 
-0.142684 0.00486044 -0.0873159 -0.167134 0.00987444 -0.0297555 -0.244361 0.00675336 -0.0882908 
-0.149039 0.0145427 -0.180984 -0.21778 0.0119965 -0.0794432 -0.204543 0.00803299 -0.0841349 
-0.191217 0.00707043 -0.0798659 -0.226485 0.00992637 -0.00178333 -0.222276 0.0127224 -0.0371339 
-0.181278 0.0129704 -0.0797028 -0.147973 0.00572134 -0.0782674 -0.13778 0.010484 -0.0792471 
-0.244997 0.00622871 -0.0723329 -0.236208 0.0062607 -0.0771147 -0.206649 0.0060187 -0.0731268 
-0.169744 0.007251 -0.0750999 -0.156135 0.00687813 -0.0723499 -0.130744 0.00305811 -0.0765121 
-0.22714 0.00615857 -0.0711763 -0.216439 0.00561001 -0.0697873 -0.131869 0.00600009 -0.0661744 
-0.236902 0.0142186 -0.00122365 -0.236782 0.0101658 -0.0676688 -0.197157 0.0096568 -0.0720922 
-0.186857 0.0107581 -0.0640058 -0.177673 0.0139337 -0.070157 -0.142704 0.00852017 -0.0695878 
-0.244995 0.00598016 -0.0613717 -0.199891 0.00488735 -0.0637126 -0.152829 0.00408978 -0.0633379 
-0.140292 0.00351091 -0.0612608 -0.165666 0.00989037 -0.0639573 -0.223845 0.0102704 -0.0614228 
-0.209811 0.00944308 -0.0584358 -0.191981 0.00545739 -0.055676 -0.175169 0.00460731 -0.0606902 
-0.234531 0.0115966 -0.0577274 -0.165502 0.013271 -0.0522967 -0.244789 0.00274059 -0.0508889 
-0.227533 0.00637829 -0.0519778 -0.217736 0.00909132 -0.0519766 -0.202236 0.00992023 -0.0507819 
-0.182658 0.00651 -0.0518452 -0.169625 0.00284308 -0.0520469 -0.149766 0.00822491 -0.0498733 
-0.137786 0.00768882 -0.0507447 -0.139392 0.0135383 -0.0204103 -0.231927 0.00935872 -0.0379485 
-0.196843 0.00279998 -0.0211968 -0.177825 0.00709665 -0.0344995 -0.147708 0.00617837 -0.0396836 
-0.213583 0.00702609 -0.0418517 -0.175342 0.00871232 -0.045296 -0.159322 0.00730489 -0.0470665 
-0.244993 0.00994129 -0.0426428 -0.235927 0.00923963 -0.0471266 -0.133318 0.0141008 -0.0585006 
-0.178768 0.00769896 -0.0132671 -0.239727 0.00304564 -0.0374656 -0.143634 0.0143478 -0.044874 
-0.162951 0.0148136 -0.178611 -0.150387 0.0148228 -0.227935 -0.222337 0.0149435 -0.244978 
-0.245012 0.0148955 -0.244762 -0.188884 0.0148847 -0.00664742 -0.187031 0.0148827 -0.138814 
-0.216245 0.00833826 0.00229493 -0.191918 0.00863952 0.00220793 -0.170525 0.00173358 0.000687151 
-0.198105 0.0036478 0.241911 -0.174496 0.011674 0.00469967 -0.145896 0.0131824 0.127958 
-0.244161 0.00124428 0.00766917 -0.20741 0.00656034 0.0079798 -0.183402 0.00662575 0.00700033 
-0.170612 0.0015388 0.010922 -0.234761 0.00440647 0.00922508 -0.224847 0.00885202 0.00817553 
-0.200999 0.014058 0.00635667 -0.138724 0.00819417 0.00975244 -0.24421 0.0135671 0.0167133 
-0.215576 0.00415035 0.0143645 -0.190339 0.00827365 0.0154216 -0.1557 0.00261994 0.0116806 
-0.15578 0.0124044 0.196402 -0.169232 0.0110354 0.0166172 -0.226301 0.00880562 0.0182399 
-0.197838 0.0089455 0.022059 -0.178297 0.00822893 0.0198421 -0.159671 0.00640717 0.0228078 
[...]
POINT_DATA 4196
FIELD FieldData 3
id 1 4196 int
5 2208 3620 96 7 2197 2337 22 2209 
2215 3502 1779 445 910 3933 3930 2184 1786 
1354 1014 1750 3022 1797 3936 3492 1757 2218 
206 898 3919 3470 1337 2640 1479 2698 3034 
3472 917 3486 453 1752 12 2758 3922 3484 
487 2195 3180 3565 3483 3190 1325 3926 2597 
3927 4057 89 1865 2636 475 1774 2333 3489 
3056 1015 531 3086 1313 4053 586 3053 486 
2217 1344 1320 3560 3055 880 3946 614 2202 
41 3643 2627 1350 8 2628 154 2277 2730 
481 3113 3070 464 3025 606 2648 1311 3078 
2334 2629 37 2607 3187 2736 3914 1761 1842 
1031 54 4034 36 2601 1778 3059 2236 1837 
535 2641 490 63 468 906 2199 1906 1375 
488 3163 2655 4047 1345 10 2635 1318 2177 
1759 2263 4004 2312 1365 58 921 3461 3504 
868 1363 1791 3128 3035 3177 1054 2634 912 
1418 2336 2649 59 602 483 1401 2205 3465 
1032 1406 2379 907 3038 2353 2220 3897 3236 
3503 1322 2632 3903 485 1349 2625 3033 2299 
3068 1417 1355 1915 883 1357 1781 444 1358 
1312 2221 1338 110 878 1883 2314 1838 1923 
3948 2598 3931 926 446 1 3924 899 877 
55 1044 491 1022 2183 1314 167 2198 3202 
3894 1043 49 961 872 2646 1924 1756 2295 
3532 2764 45 2341 2664 3982 3471 3028 1753 
3544 3104 473 510 2328 1852 2219 3491 1751 
2180 3182 924 905 1898 2766 3975 3076 1343 
74 1849 875 2600 1351 2699 50 3115 1347 
2599 3026 1352 1360 869 3944 2639 914 3050 
493 2620 1411 1510 3158 1361 1371 1333 1512 
498 462 169 3464 1346 3510 953 874 4 
3545 596 480 3495 2624 911 3522 516 3635 
68 2652 20 1813 2723 218 634 1393 2251 
3047 3215 1763 3041 4073 4071 893 3493 23 
1078 1947 93 4009 3928 185 2672 3561 499 
3665 3904 3957 1511 620 3671 931 519 2179 
3229 30 2204 625 3537 1328 894 1326 3910 
209 2650 11 896 3054 60 1830 1359 3081 
916 1424 3480 3230 3145 3213 4020 2248 470 
2673 927 3141 17 3955 1061 3477 3520 34 
1776 2611 1080 3085 4094 3962 2677 84 3968 
33 2374 496 2615 88 2676 3969 3513 1394 
3645 1785 187 1384 2280 2363 3512 1087 3228 
1367 2637 2250 3970 2661 1501 461 4106 1441 
3907 647 463 3107 1822 224 228 25 2722 
2242 3981 2244 1376 892 2253 2226 2235 561 
2662 501 2240 1378 3110 2188 64 495 1383 
4089 3479 2291 3967 1862 3140 1386 3518 2609 
3666 1823 3474 1934 3963 2657 4024 1966 2254 
509 202 1382 3527 2233 520 1819 2610 1392 
2224 3517 3568 1063 2665 2724 3534 4084 1060 
3084 3135 506 3091 2783 3098 2769 3475 559 
1385 29 3972 3536 571 1816 95 2358 930 
3657 2190 4017 1962 2807 3111 2666 507 1769 
518 1874 1051 2230 1810 1771 932 1879 3083 
1334 1520 3920 3045 27 1815 3103 2193 216 
514 891 199 1423 1928 1871 3048 1391 1828 
4085 638 3046 3960 4097 4098 2238 3523 1514 
128 1395 3571 2660 1370 3528 2707 2378 521 
3959 3539 2349 990 3535 28 3090 950 90 
1770 3966 3516 3953 887 3525 2809 955 2231 
85 992 1084 3578 75 457 3976 508 2613 
72 2293 227 1766 494 3980 69 2192 3915 
1400 940 1335 1768 2232 945 1808 1516 3708 
2187 194 1833 1374 2243 1390 569 77 1331 
3099 3515 225 42 3094 3916 1427 79 2212 
876 454 1486 879 1324 484 966 1783 2693 
608 1396 3551 3473 919 177 3950 1348 3057 
4033 3761 3063 1408 451 2210 3624 3898 3496 
3065 538 15 482 2216 47 1900 3029 881 
489 1950 1800 3024 909 1483 492 2176 474 
3937 4030 4066 3466 590 3196 3189 448 3067 
2185 162 3923 1353 1798 1356 35 2256 466 
2305 465 904 53 2325 3896 452 1467 1010 
40 3079 2647 1310 1762 3051 1342 3108 2644 
1775 2309 477 913 901 2752 3037 2623 2255 
1362 2602 3071 1793 3469 1317 3630 3508 3951 
3929 2755 3603 900 3511 594 3 3482 3130 
915 1795 1911 3935 67 1019 39 3036 3892 
1856 3506 581 3030 142 3467 3905 1085 4082 
1340 3049 1339 3542 1794 3932 9 2181 3195 
2182 3992 2756 46 3899 129 2645 2604 157 
951 2203 1921 3032 467 3947 1416 3908 1528 
3031 2633 1908 1904 933 3943 548 476 2642 
2679 1316 3994 2 2211 873 882 62 558 
1012 2659 3631 1476 1796 2622 4050 890 3112 
1445 2178 16 4037 3902 2200 2606 1788 1470 
871 525 1341 1755 3044 450 3460 3074 3487 
3077 2201 3521 2638 3543 1758 1420 3459 1801 
2223 3893 1787 1003 3938 2694 2643 902 99 
181 3061 1366 1321 922 2207 2621 2320 3159 
1777 38 211 505 3965 1443 3106 636 654 
3971 923 512 4026 2617 1330 3485 3579 4090 
3978 2656 3917 2626 2667 1943 3940 3069 1938 
1935 1475 21 502 511 1807 1878 3949 1062 
947 653 4083 4013 3918 1429 935 136 2239 
3100 2653 2225 92 4104 2670 458 43 3052 
643 1826 956 18 2342 523 1500 91 938 
1767 449 886 1397 2708 1381 1812 3952 4076 
3973 3912 2654 3093 1809 2669 3147 126 3043 
3530 1827 2237 942 1811 2229 4015 948 3961 
2658 4091 3039 1937 1373 4080 888 2768 3101 
936 1820 1764 567 3082 1336 628 944 2234 
3478 1527 2614 217 3979 929 459 984 3569 
952 2186 2710 954 66 3644 991 3533 24 
3064 2189 1380 32 3109 3097 4074 3648 1821 
4077 3080 934 1389 1963 2191 2678 1377 456 
1329 884 1772 2383 2802 3153 1327 3911 895 
3531 3921 2668 3092 138 71 3476 2227 3964 
939 1824 1071 2608 2674 51 3529 1433 3570 
1387 76 460 4111 515 2713 2651 3956 889 
2347 1069 3540 563 2612 2663 3538 3589 2281 
86 513 469 13 4000 579 2340 1461 3164 
3298 3494 3599 2464 604 1854 103 2042 3942 
4064 149 2760 3983 3604 3183 1035 3628 3119 
607 447 1841 3301 3622 1913 2754 1040 3987 
2315 3627 1552 1448 4058 1028 2329 2462 1754 
150 3760 3161 3891 1023 3616 2301 4158 3755 
306 3118 2687 2757 3552 2316 3728 112 109 
2738 1592 1452 2267 1038 2324 1109 3989 3750 
623 3610 70 102 1462 163 1903 3171 183 
1402 1882 3197 3729 4041 4042 3462 3169 1412 
729 174 2753 1850 714 4187 4070 3509 968 
977 2040 3547 2441 117 2697 3075 1037 1480 
3126 574 978 3134 6 245 2688 2313 1782 
1844 2690 1446 962 3598 178 3556 967 2327 
4173 1398 959 588 600 2467 3996 2257 1027 
572 3602 3129 2403 2275 2691 870 1449 108 
4087 601 175 4194 908 1011 2686 2759 2387 
156 2684 1005 537 1526 3124 544 1888 610 
151 2276 2306 80 1006 147 4038 2696 2692 
2681 1034 2786 4036 4031 118 545 2700 186 
3173 3596 1858 3317 4108 1454 1030 3131 2020 
618 592 2861 1447 145 1210 575 3985 1484 
1096 2803 1459 2821 3167 192 3733 52 2266 
530 1851 3997 2744 903 1897 2725 3995 101 
1765 3174 1988 605 1619 3310 2272 1957 2321 
3121 4172 2889 3709 1917 1058 1472 4117 969 
599 3168 1887 670 3555 963 4069 3154 603 
547 2732 116 2734 168 1025 3170 3609 1456 
1039 1905 1760 3127 3595 1029 2339 105 4061 
346 1405 3220 4051 3191 239 578 2351 584 
2914 726 532 3608 3590 1117 2260 2407 4171 
1617 3248 1579 2771 1419 180 555 4052 1332 
3185 2605 4035 593 4049 196 1799 3613 613 
1912 533 652 1885 3160 2308 98 3205 1920 
2009 3611 577 2702 2084 1415 4045 553 3463 
44 1399 3562 2367 3302 1444 504 3058 2332 
2271 3120 2822 1840 251 3607 1995 2041 3172 
170 2695 184 2748 2330 740 2867 4115 1052 
2194 2675 3639 4006 3258 975 1889 3209 81 
3574 2922 212 1428 2806 1864 965 3563 885 
2890 4010 1057 3573 1654 223 2804 3958 1379 
1048 3212 4198 3676 176 1914 3188 3672 2415 
1518 3784 3192 3146 2630 195 4109 4223 987 
635 123 1188 2286 3207 222 2719 1991 159 
1868 3333 1067 1881 565 1574 4102 2294 1831 
4040 2300 3650 215 4025 3203 1836 342 2278 
2050 1425 2282 3641 3224 190 1179 2054 3231 
3208 4216 3138 214 1046 4072 2772 140 1953 
3526 1659 1131 2384 3637 1497 3242 1804 3771 
551 221 1926 3719 1942 4150 1506 761 1925 
2419 78 2288 1075 646 3234 2507 3352 1499 
629 2717 4139 1646 3237 2775 1494 83 1070 
2788 2718 1945 2352 3668 4079 3088 3360 1621 
1508 2792 983 2913 4212 1873 1990 2290 570 
1431 1059 1941 645 2777 1436 3096 2356 4230 
2247 641 2297 3221 995 1435 651 1493 2485 
4086 4011 3646 568 3279 2345 3235 200 1505 
616 3136 632 1076 3139 229 125 321 3781 
1202 4081 2002 455 3239 2720 3040 621 2425 
3216 1077 1074 2791 1515 1073 2704 1492 3586 
1870 1442 2801 748 1369 113 2368 2785 1123 
4075 4211 3137 655 2773 3642 3238 3157 1927 
1056 2781 2279 2935 626 4088 2287 1817 1082 
3659 2774 2086 1949 1509 1491 1825 1439 2789 
3481 778 137 4110 997 94 2501 1866 1961 
3211 2284 2510 2841 3364 631 1965 989 3240 
3204 213 3583 3670 3576 31 2790 4012 615 
352 4112 2505 4092 65 3712 2252 1930 3669 
627 2370 131 1513 644 522 3102 2056 1496 
1863 2787 127 2355 946 4027 3647 2375 3588 
3142 1049 19 998 4101 1946 1880 2800 204 
2805 640 3906 4095 3913 1001 1869 622 197 
3156 3566 201 143 1940 203 1638 1498 1933 
2937 4028 986 1872 3801 1958 1999 3661 3632 
4107 1832 517 3654 3649 2793 943 1861 3233 
3663 2808 2794 2196 526 4055 1016 1803 4001 
3612 1009 974 3988 2264 1749 2323 3557 1477 
1026 2731 2397 2270 2302 1532 4060 576 152 
1403 2818 2727 3490 3619 4177 327 472 1839 
1410 2466 529 155 48 1414 1918 2331 660 
1464 1021 996 573 1894 3998 236 2310 3166 
2991 3308 3597 1892 2749 546 2206 1004 3062 
1845 3939 144 973 1041 925 970 3125 612 
2311 598 1018 3895 971 2631 1867 4078 1909 
2733 528 3186 2018 597 1902 3181 1463 710 
4002 1413 2274 172 2307 3592 1535 3176 2213 
738 2376 220 3625 1482 543 295 3201 1968 
188 311 1460 541 3553 4029 1891 3615 4122 
3990 1409 1790 191 1017 2265 1471 1884 3468 
3559 1784 1637 3116 4062 4048 2326 1450 114 
979 1893 3690 3027 1843 308 4007 960 1036 
1453 1134 3993 3193 182 3984 4046 1437 2322 
1834 2268 198 585 2685 2742 3629 3606 281 
1013 2761 542 3618 1430 2343 4065 1907 3548 
179 3122 4190 1536 918 106 1846 2259 1163 
3558 1896 3554 3133 3614 1315 3132 1024 1857 
976 1922 2269 2603 957 4003 2258 539 1886 
4067 57 3623 1853 1458 1910 1890 2746 82 
2396 2359 3567 2726 1565 1407 1100 121 3105 
133 2616 3095 2292 1368 4210 3241 3716 4014 
2740 208 1053 3662 3449 980 2852 1948 1944 
3148 3634 1802 4132 2382 1495 1451 630 1524 
698 3633 3194 2709 3673 315 2354 2068 2298 
120 3222 2380 2778 4155 2261 3214 2366 3584 
3143 3217 3954 124 3711 2779 100 2780 3206 
695 637 2847 4018 122 3585 4103 1047 1951 
2481 1064 1081 1517 642 207 633 3524 1426 
1198 2497 928 4023 552 3175 2795 2296 3783 
2706 1065 205 3572 1432 1502 1653 2939 941 
2241 981 2249 1875 4220 1000 2784 135 3617 
1525 2245 2059 130 1814 1434 649 1079 1956 
2776 2782 2799 3636 1876 2703 3337 1955 3519 
3144 2357 3656 3149 1959 562 2348 4213 2427 
3581 2712 560 2283 3658 994 2671 2246 656 
1523 2714 3909 1805 3587 2361 1066 3660 2489 
1002 3155 1122 1954 2285 1086 550 2705 3227 
139 1877 1211 2907 1050 648 4100 4143 134 
2711 189 1960 2381 1372 554 985 1488 3577 
3977 2350 1422 566 4022 2386 2364 1504 1522 
1487 3582 219 549 617 3653 1564 1083 4008 
1932 609 1473 1895 2728 1455 3252 3601 298 
244 3303 3314 4039 2870 4296 1584 386 1286 
1205 97 2317 2824 703 2044 4186 3721 2012 
3986 2954 2763 3316 3294 705 2762 3679 1137 
282 3564 2038 160 3162 1099 2453 2884 1581 
3292 2810 3254 2434 3740 2767 587 3688 3306 
3263 3754 3726 2037 4164 3291 536 1542 3307 
1161 1169 3313 2819 247 2014 3328 2039 3293 
2451 2007 3266 3749 725 2815 659 4126 3677 
3991 2750 233 2729 711 2816 677 3772 2303 
4193 2019 161 668 2564 232 2405 3321 1698 
3737 3752 3686 3591 240 669 1604 2864 1468 
1007 1978 2459 1149 730 3751 812 734 4130 
1981 2034 527 2765 1688 4197 666 3312 1919 
4129 4195 3745 1578 3330 1094 4162 2879 1167 
2448 3165 274 3257 2335 1589 273 1093 2872 
4063 4121 1577 165 2823 1531 1976 720 3734 
1595 3747 238 2682 2439 1465 2828 3697 3251 
1983 1583 662 3549 731 4054 2735 2894 1469 
672 2028 241 972 3329 2021 173 2701 158 
4181 1982 1222 1547 2812 2741 3546 2338 1168 
4032 3766 1158 524 595 1551 1145 1534 3774 
1162 1731 1466 3626 1173 3742 727 2880 2404 
2465 1855 1089 675 2456 4120 2888 1585 2449 
2860 3287 580 2452 2433 279 4068 1608 280 
290 1590 2344 2436 2022 148 4183 265 1105 
3683 305 3757 1668 2987 4124 283 1474 2829 
1133 2023 1156 301 3681 2866 1146 2454 3736 
1091 713 314 2874 1097 2447 3318 958 3296 
1150 1538 3689 304 3379 396 2739 1971 4205 
164 115 1848 4287 3731 3295 2487 297 4159 
2471 4189 4294 385 1718 3232 639 1521 3674 
309 3694 250 3184 3249 2444 2519 2868 2905 
246 403 2472 3353 3593 540 2831 3723 1160 
3200 2045 4127 732 700 4131 4141 2855 3250 
1208 2389 2024 3794 4218 1540 2090 1702 2080 
1457 2891 4176 1601 4196 3114 1936 1529 3600 
1973 1166 2440 3198 255 1245 3759 2834 999 
3334 2035 1113 119 4243 1685 982 769 1997 
582 4206 723 1213 2088 3225 2051 4156 828 
557 4228 3151 2883 1537 1503 1143 3275 3331 
2429 1126 2925 2043 278 257 2089 331 4201 
2346 1563 2930 4099 1967 680 303 3795 259 
3703 1490 1586 2319 4295 4238 1192 267 3713 
4320 2899 2064 1303 3150 3256 1657 340 2916 
2001 1603 4203 261 3452 624 3223 1102 4170 
4226 1194 4161 332 1182 3288 2832 2416 1916 
1974 3245 4221 3702 1631 335 3778 3698 3691 
1642 2934 2503 3226 4148 2480 2838 254 3640 
3798 3349 235 3792 3704 4237 1556 1178 1723 
2420 2362 684 763 2865 3348 3362 757 2421 
2003 3773 1128 4225 3707 4136 3652 762 772 
4231 691 256 2049 3788 330 3786 3889 679 
4227 2929 1651 2428 2910 4200 2500 1859 1132 
320 3714 2502 2070 3806 839 266 3871 316 
2833 2839 2770 768 3356 2414 350 2424 2837 
755 443 1575 4325 4330 2066 776 2373 417 
210 2856 1567 4157 3775 2069 2923 3814 1212 
2372 3338 696 2154 764 4224 770 1302 2494 
3354 1129 2512 328 264 2062 1238 3580 4137 
2513 1674 423 747 1118 4316 439 2843 2901 
3768 1559 2158 3878 2846 765 2845 3764 2506 
1652 1201 681 4318 3765 2796 3710 2482 2498 
2918 318 3769 1297 3342 270 1421 334 1507 
1193 2926 4154 2511 2410 1633 3824 322 2721 
1289 1177 324 4144 2509 2912 3371 3799 141 
1628 1640 2514 4151 766 3243 4204 1215 1185 
1121 3276 3358 2919 1130 1566 3286 1115 1636 
3785 3369 326 3819 3436 1629 3363 4229 317 
2853 3720 1489 4096 2052 3779 4093 2078 348 
1199 333 2053 2906 1120 2842 2110 1072 3457 
3359 694 132 3269 2103 2085 1655 1300 1630 
4153 2595 3152 3790 4145 2360 3277 3706 2504 
779 1623 3267 2959 1114 1612 1644 693 1649 
2055 2908 744 2124 171 2878 1587 3746 4005 
291 1972 1582 285 166 2273 589 1110 2408 
1154 1267 4188 2047 2813 1249 1174 248 663 
821 3413 2946 4135 2542 61 4166 1701 1717 
2747 1140 1835 2013 2862 1706 2689 1975 3261 
287 4192 3319 2814 2318 3372 3594 2680 964 
2524 2745 3323 2938 357 3290 1599 2963 2743 
2432 1108 784 1610 1605 704 2094 2683 3178 
2130 289 2508 107 611 1598 1588 367 3744 
1548 2473 2442 104 1596 1008 1481 2830 1616 
292 4184 736 2876 4182 2435 111 2388 3838 
4174 2394 3684 719 2468 3682 2093 2445 286 
1088 534 4056 2457 2262 293 2547 814 2015 
1530 3605 3762 3304 4169 1485 1711 1641 299 
2071 1478 3621 1138 3730 1969 1665 2461 3763 
2398 249 3422 2304 296 2990 1142 739 665 
4105 1591 3325 3246 4167 1609 3687 2393 3758 
1157 2446 3259 716 4185 3753 3265 3280 277 
3418 2751 1090 1899 2817 2437 4043 1929 1847 
1107 2026 2892 4113 3426 3410 337 4312 2737 
3199 1576 1135 3300 745 1632 2902 231 3685 
3117 3218 3743 146 777 1539 2875 3846 2033 
3326 1602 2886 4191 3732 1170 3692 3255 2873 
3693 4118 3811 1404 3324 3756 300 4168 1986 
2896 2871 2036 381 3309 2881 2087 743 3804 
4119 2798 2098 2715 773 1042 4233 4149 2455 
3003 689 2479 1440 2470 2369 3219 3264 1901 
3271 712 2164 2854 3278 2850 2532 1977 3651 
1141 3655 1994 658 688 2460 3451 3407 2882 
3791 3343 1101 1136 1095 3836 3260 3336 1571 
847 4147 1206 756 1650 1196 354 4152 2904 
3999 760 1438 2371 3340 2900 1558 1553 2365 
4146 4059 3370 1572 4236 774 2474 329 1570 
697 1998 2006 3282 2289 1203 2426 153 781 
1165 3667 1677 2903 2917 1939 4208 2385 2418 
2797 253 1214 1190 3888 1176 2065 4202 3575 
2173 3332 1195 3270 3274 2074 1568 343 2109 
3823 619 1620 1247 294 1045 1119 2915 1183 
3803 3366 1627 2478 3283 2488 2377 699 862 
4215 2008 1656 1184 1996 3273 1860 1124 852 
268 4016 3281 344 2067 2166 355 4199 1626 
3796 1055 686 650 3365 372 1992 3700 3638 
1952 3664 3361 993 759 1562 1560 347 988 
3447 1200 3883 3350 3007 1648 2061 2058 556 
2716 226 3828 3431 1112 2076 1033 1092 690 
4019 3346 2928 4239 272 3423 1068 349 1647 
3341 4222 767 2458 2463 4234 2844 775 2933 
2167 319 1181 1276 2968 1597 2099 1661 3841 
3412 3299 2948 2048 1696 2122 2970 4116 4279 
4253 1546 3809 3409 4165 1703 1695 4163 1980 
3739 1265 1305 674 2135 2898 1543 2964 708 
2391 1673 702 2979 237 384 4277 4274 243 
2031 2128 2144 2523 2157 2945 3735 4178 3404 
3829 1690 3403 2011 276 1225 709 826 1219 
2556 706 364 3247 2561 3832 4276 2858 3424 
2550 2545 4286 813 3374 2980 3322 3377 2541 
2117 2562 786 2126 1224 2140 1153 807 368 
815 1705 3428 1712 388 1106 2975 2123 4247 
4246 2827 3855 1611 2978 2145 1716 1171 2974 
3748 1226 3381 392 791 2401 4133 2895 4128 
3860 1262 2392 1217 3380 707 737 358 1697 
2972 3305 829 2553 3262 718 3837 1607 4275 
2132 2869 3368 671 1144 1710 398 3852 2966 
3384 787 3810 2143 4284 724 4240 3400 830 
1669 1970 1594 363 1671 3375 1689 234 3851 
2537 313 302 3858 1693 1261 2951 3289 1283 
1692 3727 3327 2887 4244 2952 2116 2390 838 
3311 1098 3406 1228 399 820 2438 1613 275 
2139 4283 4125 825 824 3813 795 4255 3853 
4297 391 409 1662 3416 1533 782 2863 2030 
3840 3845 361 3018 2520 2129 3395 2115 2941 
2032 1263 2142 389 1272 2125 230 1699 3320 
2450 2096 4285 387 2940 412 3420 1672 3315 
4288 785 1175 1268 3427 2526 1155 252 1545 
4301 2965 3849 3415 2996 2402 405 790 721 
2010 3244 1664 2885 717 1987 3847 3425 2152 
673 4261 4291 1266 3458 4298 3873 2515 365 
369 3724 1104 2985 402 3678 2982 404 3680 
3808 1251 797 2826 1713 4280 835 796 4289 
2469 664 1691 809 2114 3848 1250 2967 2560 
3885 3741 2956 1709 1218 2944 3441 284 1714 
1670 817 1544 2400 2973 822 1152 395 4278 
1708 1593 400 2131 833 2097 2958 823 2522 
2994 362 2148 442 2580 3414 3722 2995 792 
2984 3344 1729 678 1639 440 741 4307 1678 
1259 341 1704 2027 1726 3875 855 3443 1233 
1204 4123 866 3385 3718 1561 1555 4241 859 
1622 336 2101 1993 2168 2483 360 4317 2549 
837 849 1164 4263 2160 4269 2412 2953 2499 
3863 2530 3820 2119 687 2538 2909 4327 4331 
1287 2413 2161 2529 1744 1216 2992 2976 850 
2046 2165 3419 3890 4270 793 3699 3339 3345 
1285 2151 4138 4257 1676 4309 2588 4232 865 
3437 1740 1725 1236 3268 4219 3800 794 3797 
1232 262 4306 2573 2961 2395 2150 4259 420 
426 2840 3869 1293 413 3439 845 804 2587 
1734 1624 2105 3864 380 2484 676 1680 3440 
2579 1295 1675 2491 1282 3020 4321 2075 2920 
2063 2583 3826 421 4323 2581 3715 2430 1234 
1735 3444 1747 2534 323 2163 3770 2582 861 
379 3874 2077 2495 3396 3705 2111 260 263 
271 846 418 2533 434 2004 1298 1292 798 
2924 1306 4207 1125 2423 4319 2496 2571 2957 
3008 3010 2486 2572 3802 3009 1186 3887 3433 
2172 2590 682 441 1724 2422 1116 2417 1288 
1239 863 2589 758 771 2083 258 4021 3453 
3870 1733 3442 2576 2493 2146 746 1279 1658 
2585 2591 2476 3777 2431 858 3390 1231 3398 
1737 4329 4303 692 3388 2936 2411 4314 1291 
432 1645 3019 2072 802 2159 3272 3825 3006 
3017 382 1736 1284 4305 2005 2156 2835 3448 
2155 2592 424 841 1209 3782 4266 3876 2594 
3450 2577 1296 433 2568 1235 3392 1684 1189 
1281 4262 2000 2997 437 3445 4260 2596 3005 
2960 1280 799 4142 1111 2993 436 4304 1730 
3430 2554 1230 2057 3455 3011 1681 2911 3805 
3002 4264 2081 383 3429 1727 307 4179 3857 
2836 1667 2029 3378 390 2983 1989 2169 3850 
2017 2977 1660 2518 1985 831 3383 3831 2543 
2406 1172 3843 401 2025 2565 2141 2825 2988 
2092 2544 2877 811 1256 394 722 4250 1541 
406 3725 4254 3807 4273 2942 2552 410 4251 
819 2820 1615 2409 3856 1694 3695 1187 3842 
4299 2950 2138 2986 2134 2539 1606 3844 1255 
2548 3834 2120 1600 1254 3253 4134 3297 1257 
1715 2897 4160 1549 1139 2137 393 2527 2947 
4292 1979 408 2121 3421 2399 2969 3402 2943 
4293 3408 1666 1707 816 4281 407 2133 780 
3382 2016 1275 1148 4302 661 1248 1550 827 
3865 1253 1258 733 356 2546 3675 1151 2136 
359 2531 288 2893 2127 1220 1984 3812 1197 
810 788 2557 4249 3835 4242 1720 806 3417 
3881 2859 3866 2558 2107 2981 2811 1614 2118 
2989 2095 1663 1260 2517 1243 715 1278 1223 
2175 854 3854 1269 1252 3376 1270 4328 1264 
438 1271 2521 3833 2443 1580 842 783 3738 
411 2563 2971 2559 1700 3839 4245 310 1277 
1227 4114 3859 1683 428 1557 3884 2921 4290 
2931 1159 1237 397 2536 325 2104 657 1643 
1207 375 3021 1732 864 3347 2477 2106 1739 
1246 752 851 2162 2149 808 840 3399 3357 
4326 427 3815 338 3817 2998 1240 1719 3867 
1127 3367 801 742 1241 3717 1679 3789 2079 
435 4322 339 789 2490 1741 4324 857 3821 
3335 3787 3355 422 3434 3389 1635 1290 1554 
2153 3454 701 3776 4332 853 2108 1304 3780 
3015 371 1743 856 3435 749 3446 430 370 
2060 3438 4258 416 419 3877 1618 3393 3000 
353 1294 1229 4313 2932 2569 3818 844 2113 