# vtk DataFile Version 4.0
Generated by LIGGGHTS
ASCII
DATASET POLYDATA
POINTS 4250 float
-0.234552 0.00212475 -0.244841 -0.187209 0.00938854 -0.244984 -0.131235 0.000831827 -0.244419 
-0.150518 0.00566583 -0.244975 -0.138181 0.00923966 -0.142239 -0.21451 0.00891439 -0.244944 
-0.204211 0.0112364 -0.244605 -0.198045 0.00635642 -0.000851925 -0.162941 0.00432181 -0.244886 
-0.220203 0.00305203 -0.2385 -0.210016 0.00348912 -0.237827 -0.20002 0.00388582 -0.238182 
-0.174833 0.00426358 -0.24196 -0.156222 0.00922193 -0.237504 -0.138058 0.00438238 -0.235947 
-0.244983 0.0064604 -0.23242 -0.235149 0.00652087 -0.229458 -0.215355 0.00444376 -0.229385 
-0.237692 0.0100481 -0.238485 -0.228428 0.0119306 -0.234519 -0.188309 0.00888854 -0.217267 
-0.190304 0.00567757 -0.236223 -0.167126 0.00581607 -0.235777 -0.148295 0.00473153 -0.231807 
-0.225302 0.00465687 -0.228411 -0.204864 0.00184192 -0.228569 -0.193795 0.00934162 -0.225649 
-0.173595 0.00779823 -0.228212 -0.160221 0.00578373 -0.228542 -0.137441 0.00561596 -0.225721 
-0.188941 0.0137476 -0.185151 -0.183679 0.00724622 -0.228808 -0.21643 0.00385463 -0.218957 
-0.243258 0.0100282 -0.222858 -0.232834 0.00778548 -0.21975 -0.146932 0.010359 -0.219444 
-0.233292 0.0145546 -0.0173607 -0.167176 0.001718 -0.22262 -0.206164 0.00558948 -0.218798 
-0.194532 0.0113309 -0.209762 -0.244972 0.00994072 -0.212887 -0.223732 0.0109056 -0.216378 
-0.157161 0.0107022 -0.219896 -0.130536 0.0086988 -0.187018 -0.209492 0.00534109 -0.209362 
-0.178237 0.00868075 -0.21228 -0.235774 0.00599183 -0.209715 -0.161439 0.00656965 -0.210091 
-0.149176 0.0137391 -0.210144 -0.137238 0.00514222 -0.20625 -0.135728 0.0122741 -0.0136291 
-0.170721 0.0134878 -0.207377 -0.188717 0.00624612 -0.198037 -0.221402 0.00727681 -0.206093 
-0.175509 0.00959452 -0.199225 -0.22325 0.0143523 -0.242724 -0.244673 0.00902883 -0.202336 
-0.240639 0.0104756 -0.00238686 -0.167424 0.0107684 -0.0174275 -0.154827 0.00943298 -0.203039 
-0.238629 0.00971199 -0.19371 -0.229165 0.00832781 -0.198496 -0.213503 0.00783765 -0.19995 
-0.203535 0.00748119 -0.20076 -0.152416 0.00932166 -0.193297 -0.173071 0.0136651 -0.00255324 
-0.223386 0.0119156 -0.134456 -0.165329 0.00868055 -0.198987 -0.131933 0.00835506 -0.197726 
-0.179965 0.00674404 -0.188239 -0.167944 0.0119699 -0.187543 -0.141303 0.00978025 -0.193019 
-0.223874 0.00923791 -0.189871 -0.212819 0.00944181 -0.190094 -0.198314 0.0104321 -0.0118176 
-0.145619 0.0101951 -0.00179861 -0.18869 0.0136598 -0.0112589 -0.140343 0.00790199 -0.245 
-0.233706 0.00659294 -0.185538 -0.196404 0.00705883 -0.185437 -0.154267 0.00859277 -0.183472 
-0.244945 0.00356596 -0.184495 -0.16561 0.0142302 -0.0628521 -0.244992 0.0139687 -0.0396709 
-0.208924 0.0112296 -0.00433271 -0.178163 0.00749993 -0.173435 -0.205874 0.000759963 -0.184333 
-0.17503 0.000726745 -0.180789 -0.165668 0.00707248 -0.178467 -0.225247 0.00744471 -0.178795 
-0.214281 0.008668 -0.180211 -0.19893 0.0085572 -0.175767 -0.187155 0.00518961 -0.179467 
-0.148459 0.00177716 -0.175397 -0.208098 0.013619 -0.0247729 -0.179505 0.013967 -0.222354 
-0.23558 0.00806066 -0.175757 -0.21133 0.000847084 -0.170026 -0.190521 0.00523955 -0.170036 
-0.157204 0.0103598 -0.172508 -0.139202 0.00799822 -0.168828 -0.132546 0.00611072 -0.177371 
-0.244927 0.0114707 -0.178253 -0.213522 0.0142565 -0.136033 -0.219796 0.00916693 -0.170189 
-0.201301 0.0083076 -0.165688 -0.2426 0.0032019 -0.170355 -0.229615 0.00442447 -0.168549 
-0.165699 0.0142369 -0.167369 -0.151376 0.0119546 -0.163279 -0.171954 0.0134562 -0.128811 
-0.176627 0.00468253 -0.163897 -0.213956 0.0131444 -0.215043 -0.170772 0.0147114 -0.244995 
-0.222842 0.00477154 -0.161045 -0.211785 0.006342 -0.160932 -0.188465 0.00400362 -0.159014 
-0.168792 0.00455503 -0.157307 -0.130438 0.0044433 -0.15788 -0.194354 0.0131906 -0.159591 
-0.159975 0.0121984 -0.158151 -0.141992 0.0087283 -0.158308 -0.203167 0.00642273 -0.155882 
-0.145526 0.00746405 -0.149034 -0.244981 0.00489449 -0.160762 -0.229539 0.0100859 -0.154352 
-0.227327 0.0102672 -0.0523004 -0.208078 0.0144895 -0.15189 -0.218072 0.00175436 -0.151829 
-0.194381 0.00563957 -0.151039 -0.244978 0.00229753 -0.151063 -0.208588 0.00539686 -0.147533 
-0.17636 0.0101498 -0.151454 -0.155142 0.0047709 -0.148034 -0.133775 0.000717257 -0.146904 
-0.216741 0.00443962 -0.00502208 -0.132371 0.00343527 -0.00771602 -0.142071 0.000787968 -0.00701804 
-0.237108 0.00442231 -0.145205 -0.22687 0.0050584 -0.145417 -0.199473 0.00543601 -0.142281 
-0.184314 0.00883655 -0.141211 -0.14855 0.00500634 -0.137434 -0.209933 0.0120983 -0.115012 
-0.169729 0.0102581 -0.138856 -0.216983 0.00612744 -0.142001 -0.196034 0.00964789 -0.133804 
-0.244631 0.00508252 -0.13726 -0.232439 0.00950297 -0.137944 -0.157808 0.00886349 -0.138588 
-0.159614 0.0102313 -0.0112111 -0.139114 0.00568738 -0.131771 -0.244729 0.00189594 -0.127181 
-0.234051 0.0011288 -0.130251 -0.216743 0.00637155 -0.129353 -0.207312 0.00632567 -0.135939 
-0.184427 0.00200515 -0.126834 -0.156254 0.0147386 -0.0197471 -0.152721 0.0126128 -0.12903 
-0.176346 0.00708833 -0.121936 -0.188627 0.00970149 -0.00165054 -0.204011 0.0131972 -0.128508 
-0.170981 0.0127773 -0.0857514 -0.162167 0.00913303 -0.127527 -0.195442 0.0122306 -0.0220868 
-0.141264 0.0129985 -0.231572 -0.20902 0.00284211 -0.121001 -0.244945 0.0102954 -0.117656 
-0.234547 0.0045974 -0.118852 -0.225247 0.00771082 -0.123732 -0.141423 0.0134579 -0.0661512 
-0.195268 0.00653972 -0.113536 -0.167946 0.000849608 -0.116766 -0.140869 0.0108129 -0.117353 
-0.132469 0.00748243 -0.121879 -0.231934 0.00545029 -0.0036534 -0.153064 0.00374942 -0.00515902 
-0.15397 0.00269989 -0.118847 -0.192661 0.0144318 -0.142487 -0.218689 0.000771559 -0.112183 
-0.176111 0.00659968 -0.111721 -0.132311 0.0104941 -0.111667 -0.205027 0.00312515 -0.0102185 
-0.183691 0.0121888 -0.16503 -0.239674 0.0079118 -0.108075 -0.185512 0.00695653 -0.117741 
-0.230736 0.0108104 -0.112005 -0.205811 0.00559831 -0.108048 -0.169176 0.00557042 -0.104519 
-0.18567 0.00707232 -0.107753 -0.178769 0.013258 -0.101277 -0.22074 0.00453178 -0.0884136 
-0.24467 0.0123932 -0.144377 -0.151923 0.014127 -0.227698 -0.155399 0.00111093 -0.102189 
-0.227045 0.000834203 -0.100577 -0.190791 0.0035622 -0.0972401 -0.145971 0.00448925 -0.101418 
-0.22484 0.00769541 -0.0103877 -0.214353 0.00548759 -0.102691 -0.238598 0.0111238 -0.125763 
-0.135975 0.0132998 -0.101999 -0.234648 0.00808487 -0.0994164 -0.211254 0.00843976 -0.0895766 
-0.151803 0.00680055 -0.0931126 -0.13707 0.0058348 -0.0952056 -0.179508 0.00508328 -0.0947421 
-0.162858 0.00494186 -0.0956075 -0.223483 0.0105799 -0.103486 -0.219078 0.0139594 -0.0854931 
-0.188542 0.00952274 -0.0892638 -0.1752 0.00285777 -0.0857105 -0.234942 0.00618063 -0.0886872 
-0.199398 0.00843 -0.0938124 -0.158973 0.00945096 -0.0865382 -0.14072 0.00488469 -0.0858183 
-0.150365 0.00127845 -0.0846579 -0.19427 0.0104611 -0.0793819 -0.178779 0.00083891 -0.0746397 
-0.18645 0.0126132 -0.152245 -0.225832 0.00725731 -0.0800647 -0.216063 0.00507308 -0.0795538 
-0.241841 0.0136252 -0.089086 -0.132009 0.0135029 -0.0774836 -0.241742 0.0069492 -0.0786458 
-0.203055 0.00561562 -0.0730412 -0.1888 0.0118902 -0.0701608 -0.19325 0.00150926 -0.0671306 
-0.16472 0.0114899 -0.0779615 -0.139409 0.00754047 -0.073963 -0.148446 0.00867278 -0.0142397 
-0.21567 0.0130872 -0.234403 -0.182137 0.00296875 -0.00936812 -0.134647 0.0139932 -0.153991 
-0.148958 0.0135445 -0.0748318 -0.212733 0.00379922 -0.0672644 -0.130828 0.00826707 -0.0674864 
-0.233515 0.00286038 -0.073909 -0.222653 0.00716953 -0.0697163 -0.176796 0.00657948 -0.0666957 
-0.156922 0.00781746 -0.0728344 -0.164558 0.00418185 -0.0668627 -0.219953 0.00206415 -0.0587559 
-0.244927 0.00965826 -0.0651885 -0.20142 0.0050357 -0.0609941 -0.170649 0.00792961 -0.0565158 
-0.143828 0.00388528 -0.0622004 -0.220804 0.0129868 -0.148269 -0.151456 0.00338852 -0.0554818 
-0.24362 0.00572207 -0.0558474 -0.211115 0.00741048 -0.0577155 -0.184944 0.0069739 -0.0606301 
-0.132369 0.00469626 -0.057914 -0.234876 0.00149997 -0.0611185 -0.21762 0.0116051 -0.0503269 
-0.194277 0.0144946 -0.0594215 -0.160217 0.00890718 -0.056262 -0.170408 0.0132388 -0.0957096 
-0.167292 0.0114794 -0.218662 -0.203223 0.0101266 -0.0509695 -0.188487 0.0121835 -0.0512569 
-0.170061 0.00652014 -0.046614 -0.130607 0.0109785 -0.245065 -0.140913 0.0055641 -0.0467978 
-0.150169 0.00158803 -0.0456887 -0.18038 0.00454338 -0.0470711 -0.159382 0.0038625 -0.0409065 
-0.244342 0.000741005 -0.0450784 -0.230634 0.000834148 -0.0503969 -0.21015 0.00497616 -0.0458993 
-0.167673 0.0085384 -0.0370277 -0.23435 0.0131067 -0.0371342 -0.225839 0.0091488 -0.0423376 
-0.193806 0.00392701 -0.0457436 -0.244958 0.0149818 -0.020128 -0.200487 0.00714876 -0.0387231 
-0.139593 0.0120256 -0.0297555 -0.192367 0.00234595 -0.00900075 -0.136933 0.00499138 -0.0368861 
-0.219737 0.00549204 -0.0351055 -0.178346 0.00891091 -0.0381063 -0.146926 0.00528518 -0.0368984 
-0.191446 0.00260862 -0.0355259 -0.17436 0.00283538 -0.031045 -0.162813 0.00281593 -0.00173249 
-0.157851 0.00713066 -0.110272 -0.165607 0.0126048 -0.0280139 -0.244999 0.0079523 -0.029309 
-0.217632 0.00351095 -0.0255431 -0.21012 0.00765308 -0.0325395 -0.200511 0.00443087 -0.0288488 
-0.152646 0.00733449 -0.0281443 -0.235258 0.00612579 -0.0279438 -0.226587 0.0115837 -0.0267169 
-0.226141 0.00398539 -0.0196727 -0.162331 0.0129523 -0.147364 -0.143979 0.0044417 -0.0239084 
-0.205594 0.0139526 -0.142197 -0.184701 0.00615359 -0.0288677 -0.133775 0.00222911 -0.022033 
-0.242477 0.00866456 -0.0123971 -0.215803 0.00307475 -0.0156783 -0.196638 0.000771728 -0.0190051 
-0.18466 0.00721247 -0.0188193 -0.138482 0.0130599 -0.0565953 -0.19168 0.0136521 -0.125301 
-0.225219 0.0122821 -0.0931782 -0.224514 0.0127188 -0.0616032 -0.188394 0.0133447 -0.0407508 
-0.244196 0.0139627 -0.244998 -0.216972 0.0141482 -0.157441 -0.189019 0.0141877 -0.098176 
-0.191998 0.013519 -0.0314054 -0.189571 0.0147426 -0.173478 -0.174795 0.0142501 -0.235829 
-0.199853 0.0146596 -0.119466 -0.138714 0.0144942 -0.177122 -0.244745 0.0140129 -0.165156 
[...]
POINT_DATA 4250
FIELD FieldData 3
id 1 4250 int
1786 3898 3933 1921 1791 2638 2202 3919 474 
917 1783 451 1003 3631 3891 480 445 2215 
3034 3502 8 538 2210 4066 487 1337 3187 
484 7 3610 3074 453 3065 3930 2178 919 
38 2217 2627 3922 879 3484 3190 3988 2625 
4004 922 3024 529 3056 1904 2216 1420 2182 
2606 1774 1354 67 3047 454 1779 911 2185 
47 1325 902 1758 1750 4001 2208 1353 608 
3053 1350 3940 1895 2626 4033 3035 3070 492 
3495 1799 3982 1318 2607 909 486 477 62 
2634 912 3061 535 3050 1344 2222 1796 1338 
36 1413 596 471 906 2177 4034 39 3938 
3077 2603 2636 2325 481 1792 3931 2632 2221 
3511 3624 2195 1778 3946 1310 3059 2207 910 
2598 466 491 2197 3504 899 3461 1363 3462 
3542 1356 169 3049 3894 1348 1339 3134 1044 
1321 448 926 63 46 1467 1950 163 2314 
1762 1346 10 966 1401 181 1756 3958 1801 
3490 918 3994 2337 2629 2644 1798 881 1005 
3471 2752 1418 2696 935 2336 2746 880 3532 
3116 3128 873 904 3469 1781 1355 3115 2764 
1322 2180 872 1797 3551 3196 1362 1416 2339 
3928 2649 915 3548 3 1352 3985 908 905 
2732 913 483 2699 1884 3943 3120 1788 581 
2309 1315 1849 1775 2639 3992 2200 924 1357 
2621 961 1900 45 2647 594 3498 2179 1320 
3607 3899 3608 2211 1787 1784 3508 55 1856 
1361 3630 22 3159 3057 3932 446 3491 74 
2213 3076 3028 1375 1019 3189 3180 1753 1838 
2756 1324 3186 2196 1340 3892 2698 3947 2645 
50 41 467 1360 2635 493 3897 3467 875 
3030 3506 3468 1365 869 206 3079 176 9 
3032 473 490 2620 3104 1347 1316 1793 2223 
2602 3108 1396 3929 883 516 462 3905 877 
1898 3071 2181 1341 468 49 3521 2641 1366 
3925 489 3465 2236 2600 2664 3090 1794 89 
77 874 3953 559 3527 3949 1802 3031 954 
175 942 1359 916 4026 3936 1371 3229 3470 
3044 2604 81 3081 1379 1470 2652 3236 2667 
80 2659 3963 2656 3520 75 923 505 511 
3513 3093 4080 1816 3971 2617 1528 4071 3052 
4073 1069 4015 3579 953 2203 1332 2250 2235 
17 3917 3148 2672 3533 3145 1367 890 3918 
88 1074 33 1823 1397 1501 2225 882 938 
2188 4076 3480 2679 215 499 2670 4103 3955 
64 931 23 1331 1827 2374 4020 4024 947 
4104 2280 1334 3099 461 1373 888 496 2233 
2661 3907 523 2615 3522 2653 3094 3524 1505 
3957 3910 3981 2227 950 3645 1814 66 886 
3571 3474 3570 2244 501 3479 1500 2650 4106 
1374 1833 18 3534 2229 1807 1061 561 549 
2237 628 3952 3517 2663 2356 21 2677 3569 
25 3097 3043 76 2676 1395 2226 944 1826 
1771 1376 2242 514 981 2608 1828 1491 19 
3478 1830 2253 1063 1386 3087 1862 518 2248 
1389 637 1819 1808 520 20 3523 2612 2768 
456 956 494 2243 1382 1962 3539 463 3529 
3098 1372 2230 27 2807 1378 2240 3964 3153 
1764 3107 3912 3103 930 3911 1383 2769 3048 
3109 929 893 1377 3045 2234 219 2231 3967 
2642 3960 4074 2614 32 1768 95 952 1821 
1327 939 500 1423 3202 3242 3961 1392 3972 
1390 3481 2674 2192 1815 3976 934 1871 895 
1499 1391 4097 3528 1772 932 3083 3915 4083 
2609 3966 69 457 3204 2613 1071 3092 2189 
2707 1062 3906 3913 3085 3110 1060 460 3091 
85 1516 72 2660 1824 567 3538 3535 193 
1387 1329 1785 2232 517 2349 2378 940 71 
3100 2643 3141 84 3518 1370 955 3531 1811 
3924 1934 1763 3477 3956 3959 1800 2597 3489 
16 3543 1351 5 99 3494 469 3923 3033 
3483 2209 13 3064 3635 3510 3459 2640 1757 
1312 3182 3036 3492 12 634 871 3893 3078 
3054 2326 40 2205 2601 3472 3063 1842 35 
2220 3029 2750 1752 2631 3055 3038 590 2219 
591 54 2622 472 1014 3051 2214 3545 951 
519 3195 3509 1445 625 1345 2736 1317 3941 
1032 488 3950 1755 37 3926 3130 1923 96 
1915 901 162 2212 2198 1911 1313 614 2328 
3903 59 546 1054 2263 925 1319 3037 2738 
602 3068 3069 2623 1411 3147 2624 3896 1358 
3482 531 921 3944 4053 1777 2201 1795 3171 
2744 2755 2648 3544 3466 3463 1010 444 903 
3485 1342 2646 3558 3026 450 907 1759 58 
2199 1751 3163 482 1406 3503 510 3486 2599 
2176 1924 3927 3060 3027 11 900 3904 3095 
4049 2766 898 1905 2353 1479 2183 2342 1761 
1311 1477 1333 1912 479 3951 1031 1852 15 
476 1834 2218 1323 889 1006 606 3460 3902 
452 1343 4050 2256 464 868 1349 485 1837 
3493 2628 2184 53 3025 586 1906 52 3487 
475 3464 876 1448 1408 3578 3230 894 2 
914 3086 2605 34 42 941 2658 1076 3921 
51 3978 1776 3657 30 1393 3914 1335 548 
2238 512 2252 136 2610 470 4082 2204 2186 
3968 2655 498 984 2662 60 458 3671 70 
1422 4094 1057 945 3975 1767 3973 1820 558 
891 3039 1813 3969 1836 1381 1874 2633 497 
24 892 2363 90 3228 2669 187 3965 933 
1822 3537 4012 3082 1427 2611 3106 2665 224 
927 1424 2724 2654 3530 2791 936 1508 3515 
896 2666 2228 91 449 86 218 4077 2383 
1953 43 3970 2637 495 1497 225 2291 4091 
3144 2668 4017 217 3101 1511 3111 509 937 
1930 3046 643 1384 1809 216 1879 2781 1336 
2783 94 1385 948 2713 2254 3475 1380 3084 
1443 2190 1945 884 2678 2673 949 2288 28 
1773 3920 2671 878 2723 2193 1810 142 2251 
128 3644 1769 1087 507 1369 1817 3476 2224 
887 3512 1326 3916 2722 459 1812 515 29 
79 3080 3980 2675 2657 508 521 1394 93 
2191 211 1937 2247 3516 1330 2651 1051 506 
3213 199 3041 2630 68 126 194 2294 1770 
2379 3648 1388 2241 3962 3979 2239 92 503 
3088 513 2249 1328 1803 2317 48 155 4039 
1035 1854 3557 3599 607 2754 4115 1851 2681 
3552 3622 2685 2466 1552 2741 2340 1882 112 
1461 1447 3760 3619 2680 675 4064 1922 3022 
1040 1839 4070 1483 603 129 1026 150 3554 
2451 526 1841 3983 2329 3629 967 1103 3119 
3560 1410 2299 2759 3998 306 160 2301 3556 
2333 1907 1850 1480 1015 4060 578 4041 3686 
3986 1012 3183 103 3555 4057 573 714 3172 
2302 3317 3169 2271 1004 2728 2020 536 574 
979 2748 4035 1894 1398 144 2312 2259 179 
977 4065 2697 1909 1043 3623 1896 610 4192 
1038 1468 4047 3496 2749 3067 102 2861 2311 
1532 4119 2757 1023 2727 524 3178 731 541 
3895 588 3596 598 3728 1846 1009 1412 1890 
3987 174 1141 957 1919 2742 978 2322 3729 
465 1754 2686 183 281 1579 4031 297 3177 
3606 3298 1446 1030 4054 101 186 583 156 
572 576 4187 3997 1595 172 527 4190 1464 
2265 1024 1913 3129 3131 2702 530 2398 4043 
108 3692 1022 2307 975 1897 3643 3127 1034 
2695 2269 1782 3473 3124 82 4108 2305 3181 
3121 109 2320 1452 3654 3625 3733 3615 2275 
154 1462 116 2700 1920 167 2725 3612 2206 
4038 3948 148 3984 2274 2726 4005 1885 3614 
1405 178 972 1482 3592 3603 545 168 4172 
1466 605 1400 2277 1478 4198 3590 3690 346 
3192 3175 1918 3621 1029 1430 2803 969 2257 
4062 98 239 3185 2260 1853 3562 3990 3618 
2763 3300 1450 577 1399 533 2327 2341 2310 
4051 1476 2316 3062 976 542 1867 2308 1637 
2332 1058 3191 960 504 745 3193 4007 4046 
3160 110 3613 1036 4 2041 3209 308 1451 
3611 2295 2396 4078 3565 3058 1510 2276 1512 
2306 609 1415 3114 652 184 3205 3167 2701 
1037 3627 2331 4055 1210 3118 3628 3133 3166 
2462 2334 623 3113 1486 1843 1409 3170 4042 
575 1790 585 963 626 2758 455 118 1908 
1961 1085 65 3280 3212 1440 57 2278 1936 
2319 3993 151 1100 3908 1073 3188 965 3206 
2771 3995 1832 3158 618 982 1407 1179 1473 
1495 3233 195 1865 197 4029 2786 2507 4099 
1889 4087 2779 223 146 3536 1947 3567 3154 
3650 1916 1870 3574 134 1520 4009 3146 1938 
4006 1052 1025 3217 627 185 980 2292 1565 
1067 3540 2360 3639 2290 2375 3235 315 2804 
630 3241 133 646 1049 1957 1517 694 695 
2194 620 125 1131 4008 4079 2364 1558 3221 
655 100 1428 3716 2793 3703 1878 635 3673 
642 3137 3219 2370 3222 228 3207 2714 2300 
2706 641 4150 1804 1659 1990 1869 221 1573 
2282 3668 1881 1426 4025 2056 124 2380 1868 
3203 2719 205 1951 2704 570 3663 1502 1925 
757 2788 2501 1191 4081 3646 2703 1081 1056 
4027 1432 3586 2355 1831 321 885 208 1939 
4011 3641 3585 3666 140 1438 3783 1064 3577 
3220 4023 3647 1059 2298 651 3653 2720 4028 
3667 562 3633 340 1047 2362 2297 1873 3223 
2074 2841 3778 4089 1493 1960 656 1966 2705 
3588 2357 1805 997 210 3642 135 1509 3239 
698 647 268 636 3240 1442 569 3227 2772 
1574 3649 2505 1368 1075 1429 3669 1000 1492 
2373 212 2717 4086 3214 207 2800 2293 3589 
2799 1524 1070 1619 78 991 946 619 649 
2787 3977 4110 1046 3238 3661 4100 1572 571 
1055 1863 995 1933 4085 1489 2808 3651 3581 
1515 202 994 2359 988 2347 198 2279 564 
3136 985 3211 1946 1496 137 3637 1527 3225 
2372 3142 1514 631 2350 201 554 31 3155 
3102 1077 556 1880 1965 1959 1866 1504 1065 
2790 621 1928 1433 1086 143 622 3632 3149 
1048 522 1082 1001 3670 4084 3909 3096 3954 
1498 1441 4102 1766 227 2795 1877 131 1956 
2384 1435 638 3791 3784 2415 1941 3234 4234 
2386 1194 550 3519 3617 1864 3659 566 1431 
560 1202 189 3526 1042 1488 612 1888 2682 
2266 1840 3263 1417 3620 149 525 447 3942 
2692 3126 3164 3604 1016 3198 2324 1403 2270 
1 589 1887 4000 3598 1845 2464 725 2730 
579 1858 2733 196 1041 3125 161 1017 3935 
145 3547 2315 599 595 3761 4068 1402 245 
177 1011 4036 4169 1899 3937 962 2684 3173 
959 1028 2822 2729 1013 1883 2889 970 1460 
740 2387 117 295 3075 2267 2272 600 528 
1891 974 61 2761 3168 973 1455 870 1454 
3112 532 4003 44 2687 537 2408 2338 107 
1536 1971 182 1902 1018 971 3245 1471 4002 
3174 584 4045 2760 1903 4061 3591 1456 1484 
544 1419 1886 2922 3939 2753 1078 2351 593 
4171 2343 2258 2407 1117 2694 2268 2323 3308 
105 1765 1749 539 159 2734 1314 1857 222 
3605 2740 2709 106 3688 2690 3561 1039 1472 
157 4048 4069 1163 553 6 3553 1789 1844 
2693 3594 592 104 1760 180 147 996 2321 
2255 2344 4030 2762 3709 587 3602 4037 3595 
1893 3122 3197 3201 4067 1459 1444 3609 4052 
1917 2261 4040 639 4058 604 2691 3616 2264 
3559 170 543 2042 1453 3996 4063 2012 597 
1027 968 1079 2731 1449 4109 2784 1506 615 
1521 1995 654 3215 568 992 2916 1927 1434 
3665 1944 653 220 2688 3105 2354 1940 4090 
3662 2718 3568 633 3218 1053 989 2368 2789 
4013 2369 4223 190 3208 191 3333 1475 2286 
4101 1033 2774 2376 1119 3138 632 4014 2287 
139 1991 2503 3364 3237 3231 987 1124 3525 
3634 2809 229 4088 640 1942 3587 4215 1948 
4010 1926 192 582 3040 1876 3224 2187 1123 
2284 121 1436 565 3658 2792 4212 4018 4227 
2366 2780 552 616 3583 2715 83 2710 2785 
3140 3576 3636 200 2358 502 2296 645 3135 
1211 1066 4136 2782 3139 214 617 1963 3656 
3157 2283 204 2246 2371 3143 943 4098 3582 
3672 3573 1954 1494 1002 1490 3660 1518 983 
1949 2712 2907 4107 1526 2425 3156 127 2285 
990 644 2794 2281 648 203 998 1943 563 
113 2616 2802 4111 986 2778 928 3566 1522 
209 2773 557 4022 3216 629 2801 1523 2481 
1935 130 1932 2348 3194 213 993 4092 3575 
1084 1914 3584 153 1188 4112 1955 2708 778 
2002 2805 4075 1825 2711 2377 1437 1872 122 
1861 2289 2419 2345 123 1080 138 2847 120 
2245 2352 3708 166 3316 3731 1267 1910 244 
3299 158 3756 1611 1986 2453 3252 777 662 
3162 3413 2811 2860 3564 964 3755 1174 4164 
4188 310 3253 4296 1143 729 275 1414 2013 
2884 3294 247 3314 601 3244 233 4149 171 
2814 2767 285 1981 2870 2011 3184 97 663 
1581 248 3372 2403 2470 2765 3330 4186 2313 
2872 3254 703 367 2683 3161 3328 2810 1165 
2873 2019 2037 1929 2879 2745 665 668 669 
4165 1093 4177 1596 702 4173 1021 3251 3846 
2026 1546 2024 2487 2434 3740 611 730 2318 
3322 660 1835 2875 278 1973 2862 4121 1548 
711 2007 2010 3321 2014 2894 3794 3677 3255 
4191 4132 1978 1089 238 2819 670 3749 4166 
2448 4120 1155 3597 1585 1547 1592 2831 1608 
4130 2444 240 274 1578 232 4284 1602 738 
2441 3754 719 555 580 707 3737 3722 734 
3732 4118 3687 292 4122 311 1589 1598 299 
1138 4194 4117 2046 814 706 3327 3763 1979 
4032 3989 534 1600 1531 733 671 2823 3695 
3165 2739 3306 293 1591 1535 3318 3744 1590 
1988 4167 1593 1149 1982 1208 2452 2564 1168 
2457 4182 4160 2435 119 723 3310 273 3845 
2433 243 1142 1146 2071 305 2445 2863 2084 
249 2829 2735 314 727 2990 3151 2404 2465 
1090 3727 2262 1134 2028 3738 1586 3758 3257 
1173 2471 280 3324 1088 3743 659 1711 114 
736 1583 2991 1170 3626 1969 3375 3838 3296 
1718 2402 3774 1458 2868 3295 309 4185 2813 
1107 2877 1156 2472 713 2859 1641 2045 246 
1975 3199 2473 337 3265 2891 4189 1551 4183 
3772 2826 708 2367 3250 1529 715 2895 290 
2436 2890 722 1139 2881 2467 4127 307 3682 
4131 3325 1154 2883 3753 1617 1848 3260 4141 
152 2039 4174 1135 4287 4129 3117 231 1901 
726 2330 2888 4184 1101 404 1847 2405 3563 
1157 2394 2008 3747 1097 1632 291 1161 3259 
2751 3326 3745 4056 4163 3546 4158 2867 2389 
1113 1147 4175 2468 1615 3689 3232 3676 1542 
2304 2080 3261 2273 250 1404 3752 2871 3726 
3247 2821 2905 821 4154 4205 2882 3680 2482 
4145 3281 2844 767 1571 3451 1457 1102 2393 
3410 1974 3449 4233 1206 2938 1609 255 1184 
1167 2065 1195 769 2914 265 773 2854 3355 
1612 4217 1977 999 2089 1967 4138 2413 242 
259 1654 1159 2479 3795 1136 2939 1126 789 
2834 691 3278 2088 3256 3275 1566 3702 2079 
3351 3999 2064 761 712 3363 1092 235 687 
3707 2382 2068 4044 253 2049 755 2568 1539 
2934 756 2154 2060 4143 2903 849 2923 3287 
3345 3640 1192 2003 2455 4230 2502 4152 2346 
1556 3836 2485 4225 2504 2426 3276 3720 4148 
339 2806 1650 4237 765 776 689 3288 4093 
1875 4222 2901 551 2721 3572 2915 4170 1068 
2421 686 2500 2917 3349 382 1083 4200 4231 
1931 2497 2776 4206 316 1653 4156 3792 3655 
684 443 2420 256 2833 3768 3267 2418 257 
4161 4139 2070 3719 781 1553 2839 1132 1130 
1183 2910 3271 693 318 2933 1439 1198 4221 
2416 3354 4224 2414 2423 226 320 1201 331 
4021 1212 1289 3823 754 2913 4325 744 3712 
3274 845 2856 3332 1203 3710 1190 2062 1129 
1297 2428 2919 2167 1620 3803 324 270 4016 
3152 3366 3365 2083 317 2904 3698 1649 1575 
2086 3764 132 3272 1127 750 4019 3279 1215 
1625 1631 3804 764 1645 1998 2067 327 2513 
4236 3286 4207 3346 347 2510 1177 2932 1648 
3331 236 3283 1185 3796 3356 4144 338 3786 
1199 1682 1651 2511 2492 141 2846 2926 775 
271 2365 2449 1560 352 2427 3701 3284 269 
1997 4229 779 322 3338 2057 2906 3337 1952 
1503 1640 3718 1181 678 742 3580 3369 1626 
2514 2478 758 1658 1992 2853 326 355 2053 
2935 2488 3371 258 1120 2489 272 4155 254 
1629 3350 345 3785 2000 1635 1050 1623 1121 
692 1200 1072 344 3700 3150 1564 1576 1507 
2059 264 2912 1176 699 3801 2052 4153 3828 
2043 2361 650 3352 2842 2796 2149 334 372 
1112 333 3340 3341 2506 2837 766 1197 2925 
4228 2908 2463 667 1160 2896 1481 2824 3991 
2442 1588 386 1465 3601 1485 1972 3258 2044 
4059 2397 2689 1109 2034 1610 3323 3679 720 
705 188 1577 710 2743 3750 3292 672 2827 
1582 1968 4126 3684 1007 2954 1169 547 3289 
3176 4105 784 1469 2812 3600 2818 716 287 
2303 3293 296 958 1148 3742 1533 1166 3313 
3593 2828 2747 3290 1108 3302 3730 1530 704 
2524 1892 2816 2456 1604 3312 3291 724 3301 
1688 3309 2817 3675 2017 2023 3683 4125 739 
282 289 1158 3304 3319 2432 4180 1099 3132 
1605 4181 2880 824 2460 1855 2886 1110 661 
2459 3751 2447 1096 3549 165 1094 2022 3246 
3759 3762 728 1976 115 3379 294 1983 2440 
2454 1008 286 164 3249 2390 4176 2015 251 
2446 4196 732 2874 1463 2388 4197 298 2866 
301 3200 2737 1538 2036 3674 3262 1150 2027 
3423 385 4159 1694 279 3248 3746 2878 111 
2335 2005 3694 1534 173 283 3721 3307 2040 
1540 3723 677 3693 1245 2018 2876 1133 2035 
2009 1599 613 674 1731 277 4113 3303 1222 
1162 4162 1616 1474 3697 709 3681 540 1859 
1652 680 2512 1860 3447 2892 2098 1570 701 
3273 3798 2850 743 267 1642 2164 759 266 
3342 4238 4137 2902 3264 4220 1559 2775 1628 
1205 3821 3336 3455 332 3664 763 1603 4203 
3806 3353 3685 1563 2928 3691 2085 2930 2865 
3282 1958 2936 1114 1646 354 2474 3361 770 
2852 1095 2050 1627 760 3362 350 688 3765 
3343 2001 1643 303 1425 3775 1999 1644 2058 
1677 3788 2061 697 1045 2069 3714 4146 1567 
3773 774 3652 2109 3360 329 1525 1286 4226 
2900 1214 2777 2051 2066 679 2498 4318 3711 
3771 2918 696 1118 3715 1638 1630 4213 3705 
1621 4218 752 1656 2429 4210 3799 681 2424 
2770 319 3444 3358 4151 2103 3243 690 2494 
4096 3713 1996 768 3769 4157 1122 2385 1193 
1209 1655 1238 4211 3334 762 2055 348 2431 
2509 4072 1421 1736 1633 1657 3277 1128 4095 
4142 3819 2843 328 4216 2845 4199 2798 2508 
420 624 4235 771 323 1178 3226 1300 2899 
683 3359 2937 2076 2927 330 3706 1513 3638 
2381 3781 748 3704 2484 2716 4147 342 1213 
3370 1994 2929 1562 1115 300 1487 1196 2078 
1568 325 2006 2410 2054 1639 2797 2970 1584 
230 1597 2144 836 4253 791 4282 780 2117 
1661 834 1690 1667 3739 718 1276 2141 1255 
3383 4277 2143 2399 1699 2898 3809 3409 2945 
1703 2543 2537 3807 276 4279 1706 4179 4133 
2950 2135 3735 1550 384 1695 3408 2391 2988 
3003 4247 2541 2099 2038 2983 395 1268 3832 
3811 2968 2979 3843 1543 2123 357 358 2033 
4250 3377 4245 2550 368 360 4273 3849 237 
2563 1271 3829 796 842 788 2025 2094 3402 
1224 411 3404 3833 2963 2400 737 3856 1218 
2095 1172 2145 4292 1601 412 4168 3374 2138 
2092 840 4254 807 2942 1260 392 826 2832 
811 1220 2527 813 2545 3266 2133 1153 2974 
1712 782 396 4249 4242 2561 2825 2132 1226 
398 1671 2540 1250 2982 4299 3844 1106 3381 
3852 4255 2439 3347 2437 405 4278 3734 2142 
3834 2869 363 4246 1217 2521 1265 234 3406 
1253 2126 2392 2130 2858 2897 1709 408 1672 
1707 1275 4128 2966 828 1668 2121 2137 4240 
816 3860 4281 4302 785 4244 1662 3384 1246 
2412 2951 3736 825 1278 1689 2048 3858 1669 
2552 2975 3831 2443 2987 1227 406 2136 1580 
4275 827 3808 3847 3851 666 1262 3407 3881 
1254 2520 2981 1970 1700 2946 1270 790 1248 
304 356 1664 2131 288 3018 2943 252 3417 
3840 2941 658 815 3320 3416 2096 3427 3853 
1105 1708 3415 399 3812 2030 2820 4294 1984 
809 359 2978 2515 1098 1698 361 393 2893 
2124 1252 835 4289 1164 409 1251 2120 4285 
1091 2557 3741 2940 2517 4288 806 2526 4312 
2996 820 1228 2989 3724 657 2986 4298 3425 
3421 4195 1144 1151 2450 4261 1264 4280 1713 
2097 362 2560 4328 4243 664 2985 3848 2967 
1221 4193 1673 1710 1697 2969 1989 3376 3311 
3400 2016 2857 2562 4283 2125 410 2980 2864 
1716 3297 2140 3420 3757 1269 394 1980 1715 
1288 3875 3008 2953 1303 3395 2100 3339 2104 
2992 4114 442 3453 4290 2157 2574 3458 1587 
2984 4308 4286 375 1614 792 3777 341 1704 
4309 3782 425 3450 1676 3443 2958 1186 4209 
1666 2931 2964 3869 864 797 866 749 2087 
2165 1240 3766 3879 2566 413 3789 1721 1230 
4331 374 4269 3699 848 2532 1204 1622 859 
3874 3419 431 3335 2997 1683 808 435 4320 
2538 426 3012 2113 1216 2530 1561 1741 3890 
1730 1237 1207 850 1241 1725 4232 1293 2995 
3454 3824 4321 1569 370 3016 1234 2579 3437 
2573 1732 3386 2160 380 3006 4259 377 865 
2106 794 3414 793 2480 383 262 2101 4306 
1242 3866 4304 2499 2491 3717 1679 1647 4316 
2554 3396 2004 1187 4332 1290 3885 373 3886 
2921 2490 2162 335 2920 4256 3390 336 1734 
2998 1680 2430 3448 853 3440 2582 3446 4305 
4202 4314 801 434 2108 4327 3015 2529 3863 
858 2161 3800 4313 862 1723 4201 2105 1748 
3392 2495 2158 1719 2533 2148 682 2496 798 
2110 2591 3438 1285 3020 421 1743 416 2577 
379 1232 1287 747 2417 2924 846 2580 2081 
1299 2590 3871 2535 260 2569 2156 1247 3802 
439 2111 2146 1744 3435 685 3887 418 1298 
2486 1296 1636 4204 1747 4266 1733 2960 2585 
741 3017 1993 746 423 4208 1624 371 2063 
3780 4265 4303 414 856 436 1306 1239 3878 
2575 1302 2163 803 3004 3776 3883 2155 1111 
2072 2172 1235 3442 841 3779 2477 2594 3398 
2411 1737 3876 3391 2588 3816 2166 3456 1280 
4262 2475 1729 4322 3430 4263 3431 2171 417 
4239 3269 1284 3434 3010 1301 2147 2955 844 
3397 1727 800 2581 2153 2567 3367 378 1681 
4323 676 1735 3805 1726 3797 4310 2476 2483 
3767 4330 1180 2999 428 1292 3445 3011 1686 
261 2835 415 1281 2572 3790 1308 2093 4135 
3329 402 1702 401 700 3842 3412 2122 1256 
4241 3857 3424 4272 397 3399 3368 4178 2947 
3380 2956 2091 2531 2115 2047 787 4274 2948 
2972 1544 1152 2461 1266 3855 3854 1219 3810 
1985 1696 4116 1277 2029 3850 2548 2031 1987 
438 2944 2539 2977 2553 1229 407 364 3378 
3382 3748 830 3841 388 854 4134 2134 3403 
2971 2544 1223 1225 1606 3305 831 812 832 
2965 1175 2973 1261 4251 1145 302 1714 2438 
241 1691 1660 2127 1258 381 313 284 822 
2547 3315 2887 1537 3678 2830 2546 2406 2032 
387 2469 390 2116 4293 2118 810 673 2542 
2128 4124 717 4297 3837 3405 1545 1272 1665 
1140 786 2556 1701 2401 3865 2815 3428 838 
1263 2021 2558 2565 1607 833 2129 3873 1171 
783 369 3835 2559 1541 2949 400 2519 4301 
1283 2885 1670 1549 1257 1243 1249 403 1692 
3422 3859 1705 4295 389 391 3725 3813 2523 
2409 1663 829 721 4291 2522 4276 2090 3418 
1137 1594 3839 2952 1717 1693 2518 1613 2173 
2114 2959 3426 1104 2119 799 3373 795 2549 
823 2536 817 2152 3817 2911 1685 3452 851 
4329 4264 440 3344 4317 3348 1274 349 2458 
4219 2169 2151 3019 1236 4307 855 4123 3268 
2168 2175 1555 2112 2576 3357 4257 3389 1305 