# vtk DataFile Version 4.0
Generated by LIGGGHTS
ASCII
DATASET POLYDATA
POINTS 4241 float
-0.234501 0.0111113 -0.244938 -0.216401 0.00395076 -0.243685 -0.175688 0.010328 -0.244487 
-0.165704 0.00992068 -0.244916 -0.155055 0.00803826 -0.24492 -0.145181 0.00561646 -0.244711 
-0.130245 0.0145512 -0.244807 -0.201265 0.0023291 -0.244972 -0.130467 0.0116167 -0.167697 
-0.236078 0.01465 -0.0134329 -0.226363 0.00869833 -0.236981 -0.151987 0.00342287 -0.235757 
-0.13003 0.00814887 -0.103738 -0.204967 0.000169642 -0.235978 -0.179543 0.0123076 -0.133814 
-0.196232 0.00417479 -0.228722 -0.184175 0.00836631 -0.23352 -0.161232 0.00539892 -0.231735 
-0.141725 0.0123954 -0.235659 -0.172956 0.00983029 -0.234885 -0.222553 0.0129649 -0.197927 
-0.213858 0.00164417 -0.2301 -0.179344 0.00764347 -0.223984 -0.169479 0.00649967 -0.226126 
-0.138178 0.00761086 -0.227643 -0.233992 0.0130417 -0.231626 -0.228147 8.01336e-05 -0.228671 
-0.198029 0.010881 -0.187916 -0.223592 0.0104221 -0.019872 -0.148764 0.000778488 -0.226372 
-0.131982 0.0139646 -0.21824 -0.235203 0.00922594 -0.222454 -0.244982 0.00807403 -0.220328 
-0.218166 0.00502646 -0.221705 -0.205885 0.00546189 -0.225405 -0.190607 0.0053841 -0.218325 
-0.197259 0.00508941 -0.0113566 -0.182343 0.00854759 -0.21368 -0.170664 0.00847284 -0.216326 
-0.158146 0.00842605 -0.219218 -0.140679 0.00956232 -0.215002 -0.226203 0.0101403 -0.21811 
-0.210294 0.00794124 -0.215755 -0.201154 0.00335192 -0.216836 -0.150232 0.0134903 -0.214916 
-0.18972 0.0119032 -0.106035 -0.244947 0.00679466 -0.210373 -0.230475 0.00466717 -0.210785 
-0.2172 0.00150876 -0.212373 -0.194017 0.00934013 -0.207053 -0.173877 0.0089196 -0.206807 
-0.160309 0.0121635 -0.207334 -0.152115 0.00624024 -0.207743 -0.133765 0.00598955 -0.208607 
-0.180587 0.0123367 -0.175507 -0.173317 0.0144143 -0.0941328 -0.244542 0.0108808 -0.230264 
-0.237698 0.00401042 -0.203898 -0.211712 0.00463672 -0.19937 -0.184384 0.00777872 -0.203935 
-0.14311 0.00463895 -0.203609 -0.16597 0.0125159 -0.00612092 -0.222003 0.00873638 -0.207372 
-0.204162 0.00681014 -0.206502 -0.196479 0.0119233 -0.238907 -0.212527 0.00850695 -0.0650575 
-0.229105 0.00425117 -0.197927 -0.200317 0.00795722 -0.197278 -0.166137 0.00809715 -0.199343 
-0.156366 0.00605077 -0.19869 -0.190416 0.0054686 -0.195962 -0.175608 0.0103303 -0.19663 
-0.163657 0.0111275 -0.0157457 -0.24477 0.0068868 -0.196315 -0.235655 0.00794368 -0.189335 
-0.180938 0.00578501 -0.188555 -0.170032 0.00504074 -0.189996 -0.15156 0.00468115 -0.190015 
-0.207547 0.0148387 -0.192768 -0.207653 0.00208302 -0.00856295 -0.141953 0.00592727 -0.193197 
-0.244912 0.0042453 -0.185949 -0.222371 0.00745378 -0.189576 -0.190495 0.00461411 -0.185741 
-0.161566 0.00100593 -0.184402 -0.13902 0.00856774 -0.183424 -0.244929 0.0106629 -0.167346 
-0.206911 0.00595764 -0.188219 -0.19949 0.00439903 -0.000670427 -0.21097 0.014552 -0.206354 
-0.230872 0.0112266 -0.18119 -0.198981 0.00211373 -0.180025 -0.183876 0.00113621 -0.177741 
-0.149576 0.00862791 -0.178822 -0.232155 0.00584835 -0.0174923 -0.214088 0.0128124 -0.185247 
-0.174618 0.0130995 -0.00114668 -0.210858 0.0111391 -0.0113326 -0.245005 0.0032879 -0.175855 
-0.217735 0.00851265 -0.173195 -0.207808 0.0092483 -0.174195 -0.169474 0.0115114 -0.175545 
-0.158478 0.0142455 -0.174968 -0.190327 0.00995084 -0.169443 -0.140367 0.0138976 -0.17402 
-0.131034 0.0113426 -0.177738 -0.237522 0.00370335 -0.16924 -0.166169 0.00659902 -0.166871 
-0.152002 0.00964755 -0.167268 -0.142026 0.00925593 -0.164099 -0.130883 0.0121058 -0.133466 
-0.209995 0.00973523 -0.163734 -0.199577 0.0110629 -0.165534 -0.177759 0.00521878 -0.168362 
-0.232063 8.37427e-05 -0.159989 -0.219389 0.00940486 -0.157787 -0.203615 0.00557363 -0.157096 
-0.193707 0.0050946 -0.159898 -0.183885 6.73678e-05 -0.160512 -0.244688 0.00664698 -0.156713 
-0.186729 0.00891386 -0.153712 -0.156437 0.00740491 -0.157008 -0.138384 0.0090227 -0.154643 
-0.16861 0.00557946 -0.153672 -0.219775 0.00449741 -0.148835 -0.20982 0.00394268 -0.147329 
-0.177691 0.000146229 -0.151957 -0.146849 0.00980783 -0.14916 -0.240171 0.000876721 -0.14982 
-0.230155 0.00217644 -0.14861 -0.196518 0.00303672 -0.150284 -0.222558 0.0136737 -0.145143 
-0.155026 0.00195767 -0.145036 -0.185191 0.0148049 -0.192357 -0.160745 0.0142043 -0.237371 
-0.244938 0.00449195 -0.137981 -0.235332 0.00148203 -0.138185 -0.168978 0.00847486 -0.138851 
-0.147866 0.0101388 -0.138379 -0.188401 0.00486168 -0.141161 -0.175677 0.00908747 -0.146403 
-0.210262 0.00639411 -0.137347 -0.198665 0.00226327 -0.140031 -0.138347 0.0070659 -0.137819 
-0.244328 0.00576339 -0.00345862 -0.181367 0.00750336 -0.00595464 -0.20336 0.0132978 -0.141641 
-0.157845 0.0070827 -0.134883 -0.234633 0.0136861 -0.130113 -0.224683 0.00799714 -0.128508 
-0.189412 0.00839256 -0.129822 -0.176718 0.00272295 -0.133308 -0.16778 0.00491496 -0.129271 
-0.197742 0.0118034 -0.221343 -0.137006 0.00650901 -0.127647 -0.244525 0.010371 -0.147322 
-0.244428 6.4955e-05 -0.126061 -0.204462 0.0107049 -0.12775 -0.192733 0.0141524 -0.141068 
-0.171296 0.00162871 -0.119732 -0.152889 0.00267061 -0.124647 -0.215409 0.0103691 -0.122522 
-0.163056 0.0131855 -0.125531 -0.177686 0.00871617 -0.158382 -0.179959 0.00739981 -0.124409 
-0.15825 0.00263384 -0.112529 -0.148276 0.00627888 -0.116253 -0.165084 0.0129798 -0.147467 
-0.140012 0.0125493 -0.120269 -0.244787 0.00453843 -0.116059 -0.224642 0.00803687 -0.116162 
-0.190469 0.00367749 -0.113169 -0.182007 0.00572074 -0.108214 -0.173623 0.0085465 -0.112891 
-0.140425 0.00833967 -0.110408 -0.205279 0.014017 -0.0609022 -0.214905 0.00361119 -0.112674 
-0.204993 7.48422e-05 -0.112295 -0.219382 0.0136508 -0.00648532 -0.24481 0.00672088 -0.102717 
-0.234956 0.00858562 -0.100412 -0.221286 0.00906625 -0.103596 -0.146011 0.00115879 -0.105611 
-0.219775 0.0126455 -0.0288415 -0.244986 0.0142459 -0.24498 -0.174928 0.0122866 -0.183905 
-0.193823 0.00011284 -0.101894 -0.163068 0.00893485 -0.102893 -0.228794 0.00971218 -0.00750859 
-0.182055 0.00697504 -0.0975093 -0.173248 0.00206252 -0.102776 -0.155657 0.000125907 -0.103249 
-0.203446 0.0101894 -0.0926968 -0.232749 0.0104975 -0.0904961 -0.223209 0.0101996 -0.0937125 
-0.213403 0.00800649 -0.093689 -0.192236 0.0023186 -0.0921489 -0.175674 0.00612509 -0.0882903 
-0.162834 0.00755778 -0.0923936 -0.138871 0.00974257 -0.0994036 -0.131585 0.013814 -0.0120423 
-0.239579 0.0120045 -0.109642 -0.212569 0.0133334 -0.244971 -0.215844 0.0112682 -0.0836926 
-0.185402 0.0058373 -0.0856304 -0.153417 0.0111249 -0.0930018 -0.135653 0.00749916 -0.0874858 
-0.244216 0.0112132 -0.0841982 -0.225209 0.00669625 -0.0832285 -0.193458 0.00928665 -0.0805484 
-0.166582 0.00597963 -0.0815819 -0.167153 0.0132078 -0.0635049 -0.245016 0.00957919 -0.0139342 
-0.145521 0.0120024 -0.0861567 -0.176099 0.00289973 -0.0770032 -0.156724 0.0142674 -0.0780622 
-0.148822 0.00899792 -0.0706307 -0.141222 0.010896 -0.0771359 -0.13007 0.00723328 -0.0790985 
-0.14993 0.00650929 -0.00624842 -0.213444 0.000360459 -0.0716115 -0.202737 0.00873561 -0.0767723 
-0.227865 0.0104862 -0.166601 -0.136986 0.0125345 -0.201768 -0.244794 0.0121529 -0.0684538 
-0.224627 0.00930015 -0.0723757 -0.20456 0.00158057 -0.0670703 -0.182343 0.0060351 -0.0227001 
-0.176133 0.0116596 -0.0676905 -0.168739 0.00474892 -0.0695225 -0.134522 0.00870733 -0.0700322 
-0.146943 0.0102066 -0.015364 -0.158603 0.00952297 -0.0671563 -0.23119 0.0135534 -0.0656062 
-0.188051 0.0103941 -0.067354 -0.157455 0.00220519 -0.0597198 -0.144274 0.00647498 -0.0616088 
-0.134064 0.0131219 -0.192032 -0.198252 0.0102846 -0.0678392 -0.18849 0.013951 -0.0913276 
-0.138143 0.014379 -0.0604361 -0.244995 0.00680867 -0.0540629 -0.222999 0.00954693 -0.058293 
-0.193619 0.00674914 -0.0564035 -0.18238 0.00994276 -0.0591212 -0.170581 0.00446481 -0.058798 
-0.138879 0.00528378 -0.0518183 -0.167027 0.0138234 -0.0752403 -0.21372 0.0120669 -0.0548962 
-0.201801 0.000141862 -0.0574667 -0.148834 0.0123008 -0.0548531 -0.235239 0.00272852 -0.0496166 
-0.187113 0.00931976 -0.0140462 -0.191273 0.013942 -0.0238039 -0.216287 0.00151855 -0.0140685 
-0.158743 0.0108613 -0.0543212 -0.136869 0.00511321 -0.0104863 -0.244925 0.00271673 -0.0447895 
-0.229623 0.0110349 -0.0460084 -0.218868 0.00499195 -0.0487904 -0.210355 0.0112137 -0.0449345 
-0.201101 0.00666449 -0.0469927 -0.175789 0.0104249 -0.0482664 -0.165884 0.00940346 -0.0471282 
-0.151209 0.0026346 -0.0479706 -0.142818 0.000140003 -0.0423996 -0.18595 0.0083148 -0.0499068 
-0.237091 0.00726893 -0.040441 -0.220249 0.00570896 -0.0385203 -0.210417 0.00399418 -0.0378693 
-0.200434 0.00876419 -0.0371765 -0.190918 0.00703245 -0.0413305 -0.171228 0.0129762 -0.039281 
-0.157289 0.0053994 -0.0400228 -0.139047 0.0135132 -0.0208334 -0.150553 0.0100654 -0.0334575 
-0.134533 0.00534008 -0.0399107 -0.244872 0.00707908 -0.0341312 -0.179579 0.00956973 -0.0347796 
-0.164362 0.00780973 -0.0326946 -0.133371 0.00570412 -0.0296779 -0.17382 0.011759 -0.0158093 
-0.201112 0.00748037 -0.020348 -0.235103 0.0078729 -0.0303405 -0.226266 0.00223458 -0.0312943 
-0.216701 0.00289373 -0.0284085 -0.206605 0.00459482 -0.0285527 -0.174255 0.0132283 -0.0268849 
-0.152736 0.00318218 -0.0264107 -0.192414 0.00558459 -0.0298781 -0.158265 0.0136359 -0.0238513 
-0.244004 0.00949384 -0.0241695 -0.142683 0.00421119 -0.0238608 -0.211342 0.00938995 -0.0211601 
-0.162152 0.0131562 -0.115529 -0.211766 0.0136651 -0.224272 -0.23935 0.0138375 -0.202439 
-0.244393 0.0134672 -0.122224 -0.201321 0.0131021 -0.113663 -0.201902 0.0144301 -0.212621 
-0.208465 0.0146643 -0.0348429 -0.196327 0.0147385 -0.155601 -0.235712 0.00980879 0.00026988 
-0.220565 0.0044591 0.00105614 -0.209126 0.00784758 0.00119174 -0.146986 0.00175951 0.236843 
-0.181652 0.0106887 0.00553311 -0.167085 0.00966356 0.00459704 -0.157112 0.0103462 0.00445774 
-0.144347 0.00719406 0.00205827 -0.227351 0.0142287 0.0875453 -0.224544 0.0109911 0.131328 
-0.177631 0.000124084 0.242122 -0.242395 7.19463e-05 0.00746483 -0.200775 0.00677185 0.00894617 
[...]
POINT_DATA 4241
FIELD FieldData 3
id 1 4241 int
5 2638 538 1792 525 3489 4033 3543 1918 
1318 445 3551 924 1783 2197 2202 451 3494 
1477 1313 3053 917 12 2210 4066 3472 487 
15 3054 3631 1366 2178 471 2218 3484 3187 
873 453 484 2217 2693 876 2185 2627 2337 
3037 1354 475 586 1761 3024 2216 3190 3942 
444 2755 480 922 1350 2606 919 3635 2628 
3922 3483 3030 481 8 3025 3056 47 2176 
206 2184 3466 1353 596 177 3070 3542 492 
3495 2209 590 477 606 910 909 2664 3927 
3035 1420 535 1483 89 2622 2179 3936 3465 
3938 62 1413 3946 36 3624 3937 3926 1778 
3059 465 968 2634 1752 907 450 2632 1796 
2607 3461 3504 2256 3077 1363 3511 1310 899 
1775 3134 54 3931 1348 2602 1793 486 871 
59 63 1321 2636 880 488 491 926 1418 
874 3903 448 181 1762 2195 1837 58 1467 
3950 3113 37 2314 906 466 614 912 53 
3051 2641 1339 3163 2201 2212 868 2220 3 
1801 602 2764 581 3026 3532 2629 1794 2200 
1798 1362 52 3940 1341 3074 877 1358 3044 
1781 2180 485 1322 1357 3943 2649 3471 3189 
1849 3985 44 3896 3502 3071 905 3490 2647 
1342 2211 1416 961 22 67 1788 1411 55 
2309 3159 3186 1356 1856 1838 3057 608 1343 
3076 483 3047 74 1784 3932 2353 1019 3947 
3630 3892 2196 2603 1795 2198 1905 1361 3028 
1360 3506 1340 1912 1884 2645 35 2334 467 
3031 142 3928 2756 3643 9 1347 11 1759 
1753 2183 3510 3468 553 3521 3104 3032 473 
1333 493 176 50 3897 1950 4049 2635 869 
2620 875 1054 883 889 1316 2205 2236 1401 
902 3108 594 3929 2223 951 3068 2182 3055 
898 3893 1800 2181 1758 923 2652 3949 2383 
218 3202 914 1904 1763 2240 2675 77 1359 
1443 3048 3975 2 2642 548 3470 519 2723 
3538 3052 3236 4026 2667 80 2650 3229 558 
3093 2659 2203 3520 1470 4071 3968 2204 3971 
3963 3512 896 3917 4073 33 1491 4015 2250 
3106 43 211 1813 1822 1945 3213 1947 1827 
2672 1397 3513 1436 2225 931 3973 1528 3480 
92 1379 3671 3148 23 882 1767 185 1937 
4094 1394 942 2809 2661 1501 4104 93 1367 
126 948 29 947 499 1475 1069 3957 1374 
2374 3091 1833 888 64 2233 3094 1424 2669 
496 2613 3907 3522 3955 2363 1785 84 3097 
3518 449 886 3645 1373 461 66 3910 3981 
3088 1061 3043 193 1336 1391 3039 2615 1814 
1505 3578 3952 19 1051 1830 2244 2677 2656 
3534 2663 2241 463 3479 549 3524 18 1771 
2378 1811 3087 1809 3101 2237 4077 944 2253 
3110 2247 3111 1370 1376 3517 1500 1879 3475 
512 1764 2242 514 1063 2356 1057 567 1938 
2612 3657 1372 940 2768 2230 1862 1511 1377 
2722 3478 517 1389 3153 3082 3531 930 520 
929 1429 3535 1378 2234 2188 2186 3100 3098 
3109 2783 128 507 456 2707 3539 2608 2617 
3916 1816 3911 501 1327 95 952 27 1808 
1930 949 2231 3961 3972 1821 3964 458 3529 
2769 4074 934 884 1770 3967 219 1817 3528 
71 1768 24 1392 2673 1871 199 1815 2657 
1422 508 2674 3976 3083 895 500 3481 1423 
1062 72 2192 1766 1908 2224 3966 3569 28 
3092 1060 457 3915 3913 3959 1516 955 503 
2189 1071 460 3953 69 953 2232 927 3906 
76 3980 3046 518 2227 68 945 4111 30 
1826 2239 88 2191 25 91 3965 3080 954 
1934 1834 521 1823 2666 2190 2193 1802 86 
891 2229 3956 42 916 1773 3970 2637 21 
2654 505 634 3196 4065 516 4004 1786 2597 
1476 1757 474 3930 3994 2640 13 1337 1371 
169 1323 40 2215 3460 162 1750 3034 3065 
220 3038 3029 2199 2222 3473 879 1921 1344 
1924 2208 4053 3492 1779 531 1317 490 1906 
452 2625 462 1345 1003 2736 901 925 3486 
3545 1777 464 3049 2263 1797 911 2214 921 
904 3182 1799 3177 2623 2177 903 1338 2379 
3467 4034 2601 1751 3033 4050 1375 3112 163 
966 3898 2221 881 468 96 1312 2631 915 
2633 1031 1445 3063 3469 3116 1349 109 3894 
3925 3079 3487 1787 1883 510 3130 2752 597 
3147 1791 1044 1756 2328 3508 3463 1355 1346 
2732 2639 913 49 489 1923 46 3544 3060 
3115 3061 2624 2644 1898 2746 3120 2598 3944 
872 45 1406 3459 3992 1010 1 1408 2699 
7 2621 3607 3078 479 3503 2599 3899 2646 
446 3951 3919 1900 1852 1315 3935 2219 2698 
41 3050 2326 3036 1351 2643 2766 3491 1479 
1365 1311 38 3195 3982 2604 3902 1911 3485 
3904 3923 476 3464 935 482 39 182 3482 
2207 1320 625 1755 99 472 2325 3561 81 
1032 16 3509 1325 1330 3095 3064 900 2277 
1352 2648 2600 454 1842 3180 576 1774 10 
933 3041 3069 3958 1393 3103 2336 2614 3099 
3918 2281 3086 3228 2251 1380 1895 2679 3477 
4082 3924 3527 3231 2660 209 3978 1328 2626 
3081 175 60 498 2791 34 938 2342 3515 
4080 3969 3579 1381 3474 511 2235 1776 187 
4013 2611 3090 2653 94 1388 4083 3530 470 
3914 1962 3979 4076 215 85 892 4106 51 
194 1334 1824 3537 2610 890 1499 4103 950 
515 628 4024 936 3962 2248 1820 2252 894 
643 2280 937 1390 2254 1812 1807 1819 3144 
495 217 3648 3145 2655 941 1384 2678 561 
1395 1382 1520 224 4017 2781 2676 956 494 
2243 2724 3141 32 1828 1087 1810 3912 637 
984 2294 3523 2293 1874 2651 3533 1385 459 
3084 17 2347 3570 559 1326 3476 3920 3644 
1335 878 216 893 2238 3107 2670 2226 3045 
513 1772 506 497 1769 2668 2658 1331 4091 
1369 2665 509 1386 3960 3158 932 225 3230 
3921 2228 75 2609 3516 3085 1332 887 1387 
90 1329 2349 939 1383 523 1324 604 3604 
149 4039 589 1035 158 918 1803 1760 1903 
469 447 3598 2042 725 1552 526 3933 2762 
3126 2466 1461 3600 107 112 546 3891 3022 
3552 3622 3983 1922 1882 61 1319 1016 3619 
3133 2271 3620 3058 996 738 1026 4064 1412 
2329 2754 1486 1453 1015 1040 4042 2729 3610 
974 529 144 2301 3988 3760 3998 4068 1028 
4005 4070 1012 2333 3560 103 2315 1447 1021 
1480 2351 178 1402 4041 2020 2686 1014 2259 
1887 3654 3298 4173 3628 3496 578 1896 3602 
574 1894 104 4037 2687 1914 2295 106 3178 
245 2697 1398 1789 3895 1749 2327 3198 2749 
977 740 183 161 2206 4047 1846 1462 962 
1909 973 1754 1595 2311 2270 731 4036 612 
3623 4060 3201 3122 152 2696 970 3129 4031 
1919 3171 1858 972 959 4002 1058 172 3996 
3173 1024 1888 598 117 186 3128 572 1030 
3027 1913 537 4187 613 4054 1782 1018 2690 
2398 3596 957 1419 2387 528 4043 173 3548 
2753 1579 1022 2307 3131 3121 530 3310 2821 
101 1085 3062 4190 3592 2861 1850 3615 675 
1452 3075 603 3997 544 3181 1843 2684 1484 
2761 1041 1886 1409 148 2695 969 545 584 
3174 1920 543 599 1853 2274 116 4052 2803 
4035 2725 3119 1765 2257 1456 1482 4038 573 
2213 2260 3590 4051 2726 1466 2009 102 532 
2310 1840 2685 3308 547 3565 1995 2331 1450 
1117 3595 4172 1451 1013 3611 180 623 1097 
1043 3168 1039 4048 1004 3605 3613 3729 3690 
2332 4007 542 1430 3621 1400 504 110 3553 
1444 1029 1848 2922 192 2324 2343 239 2306 
3612 1472 157 2396 555 1637 151 3170 184 
4 4046 2727 2822 3549 155 3172 2701 2276 
1459 308 1654 4055 2322 1415 147 3629 4108 
4062 2344 2041 3114 1512 1078 3233 592 1471 
3733 4078 2702 3205 1405 639 82 3993 2763 
1917 3603 2299 1005 2758 1037 3175 3599 3118 
3686 1841 3594 908 1163 1314 2339 3547 3183 
4169 281 346 2694 3185 971 108 170 1454 
885 2731 963 3188 2740 3220 1059 1100 1437 
585 1048 2786 1473 2278 3223 3574 1936 3258 
3995 195 3212 3207 982 975 2348 1889 3639 
1119 1407 1495 1865 123 4006 2773 3146 3908 
1861 223 3650 1188 1944 2292 1052 1025 3634 
3235 2630 4009 4014 695 627 3716 1080 1067 
2056 1428 2369 653 2366 3224 2784 4008 3137 
3333 4223 757 2775 1932 3673 2793 2503 2290 
2706 1942 3668 1926 2788 191 3662 342 1868 
136 1881 124 4216 2288 3649 210 1963 4079 
4025 4010 2719 2300 1925 1646 4150 3526 127 
2795 1955 1804 551 1951 636 1368 998 2721 
655 2298 641 4227 4139 2384 943 1441 2282 
560 983 3040 1047 4081 1876 1196 1957 133 
1493 3585 3646 321 2847 3641 2291 1081 2355 
2704 229 1939 1438 2703 3157 212 570 563 
616 3637 340 205 2246 995 4212 3636 3216 
3783 4089 552 4018 1064 140 2720 1497 629 
1435 2362 1805 3642 2245 2297 632 4100 651 
3234 1574 3571 1941 2777 1494 3135 645 2799 
2373 207 78 997 502 991 2772 3139 1492 
568 1000 214 3214 4086 571 3589 3238 649 
1055 3617 3096 1515 3240 213 3140 200 4020 
2296 3581 946 2709 1965 1079 3583 2086 2800 
121 3102 1082 994 1866 564 137 992 202 
1514 1863 4084 31 3136 617 1527 1928 3586 
626 1086 3149 2279 1956 2712 2359 131 1959 
1049 556 3225 1518 1001 1946 4090 79 4098 
3576 2794 4075 987 3227 3575 3588 615 4097 
1433 566 648 65 1490 1940 1524 3536 4023 
1211 1496 143 3647 2782 1960 134 2616 268 
3577 928 1877 1050 638 4028 1509 3519 203 
622 4012 4101 1869 4110 4027 2808 2505 1070 
3540 3633 1076 2187 1504 3977 1872 204 3582 
2918 3661 2375 1489 4215 1439 1933 1488 554 
986 3632 640 562 201 2805 146 630 3204 
3493 1425 2074 2002 120 1659 3587 2249 3138 
1210 1033 189 1565 1084 647 3672 3241 1991 
3525 315 1508 3568 2364 4107 698 2341 607 
1839 3559 2317 1455 3164 3166 3160 159 541 
745 2012 2605 4000 1403 4061 2757 1854 978 
2681 1109 1844 3606 2451 577 2738 652 2728 
870 2312 2264 3905 2464 105 2750 3555 2760 
979 2759 3215 1448 1036 3263 593 179 3191 
3462 1011 145 3067 3245 306 3197 3761 167 
714 1399 3554 1023 4171 1460 3987 533 4040 
1027 1907 198 1446 2261 4045 2744 1510 1845 
2316 2040 1891 3609 1410 1902 3167 524 129 
3939 4003 3169 2680 588 2275 527 583 1857 
48 156 1468 3614 1592 4198 575 2733 295 
3627 3948 2470 2265 2691 1017 2269 70 1396 
2748 1901 595 3558 4067 2742 2407 3124 3217 
3692 154 587 4057 1893 605 1971 1034 600 
1038 2320 3750 3625 1899 964 539 2734 168 
1464 1790 3248 3307 3193 2682 2700 2308 6 
1851 4030 3618 2267 1885 967 2692 3608 1417 
4115 3709 2889 3562 960 2255 1449 1006 2462 
196 976 3557 2340 3125 2258 3728 4058 150 
2266 2730 1897 2321 2376 2268 2354 1890 3591 
3556 3300 4001 579 2272 2305 2302 1867 2771 
3616 601 4069 1915 1009 3990 3127 1573 2501 
455 609 3209 2358 4136 3566 3154 3218 619 
222 3567 3211 3192 654 4087 1948 3237 3670 
1498 3105 3781 1526 1442 4029 1619 3665 3663 
569 4016 2069 2371 3784 1517 3194 965 2705 
2790 118 3364 2352 1053 125 635 980 2419 
4109 2286 1953 985 3206 1131 1521 2194 1961 
1077 2368 2415 113 2717 1935 2776 2779 3659 
3909 3242 1836 3791 565 3221 228 130 2688 
3208 993 2380 642 208 1074 3711 221 2425 
2710 2718 1506 2907 153 2006 57 1431 2662 
1123 329 3708 1831 3653 748 1966 1990 4022 
2497 3954 1202 1432 83 2713 621 3666 3703 
135 2801 4011 2785 2481 2708 2357 2792 1943 
1427 100 618 3222 3573 1522 1864 1073 3156 
1065 2804 656 1825 2933 20 2774 1075 327 
1949 1954 4092 3143 981 620 3669 3656 1002 
4112 2807 2377 2671 3142 1426 1046 3660 1878 
3155 990 1502 1434 4085 1066 2780 2778 1870 
2386 2711 644 988 778 763 522 2802 2714 
2285 2283 4102 3658 1056 122 2287 3203 227 
1832 138 631 2350 550 633 190 1927 1873 
166 2824 1267 386 3292 4282 3303 2084 2871 
2818 1986 3252 244 1855 3721 2432 705 3731 
2453 2875 310 674 1146 3564 337 3754 275 
2403 1174 4164 4188 282 710 2013 2814 3755 
3316 248 247 2434 3244 171 2745 1108 2876 
663 2765 1981 3254 2810 4149 1529 160 3184 
1835 729 4165 1706 1617 2884 708 2019 4177 
3328 1093 2318 1546 2313 610 715 3261 660 
3251 2954 1542 700 2465 3726 1007 2812 2862 
3684 4197 4121 3290 3313 298 4284 1973 611 
3846 3293 3322 2007 291 2873 2819 2303 4168 
1969 669 2026 2683 4192 2036 4191 2014 3730 
3266 2828 4166 3255 232 2456 2473 3330 4130 
2747 274 111 3687 3291 3772 3677 1548 115 
1615 4122 1598 299 659 1602 3176 832 238 
1982 3306 2894 1094 3732 4118 3762 1539 719 
1968 3597 734 2405 243 2895 2459 2028 1589 
3737 3165 1149 720 1596 1158 2441 1605 671 
534 1531 2452 3695 1138 3546 3751 1976 668 
1988 3745 2457 724 1983 1535 165 2404 3727 
3326 1593 1168 4056 1590 2735 2435 733 2866 
1463 4167 3253 1599 2071 4182 4160 2823 1008 
278 2433 3259 249 2440 1142 2811 2338 164 
2262 1170 280 736 305 2878 3845 732 4120 
3681 662 1457 1478 3626 301 1088 2874 1144 
3423 1155 727 2015 293 4174 580 3683 277 
2471 2990 2021 2039 661 2737 1141 2767 1641 
1107 2304 3838 289 2741 540 4185 3758 1711 
283 2831 3753 1096 1150 3296 3723 2859 2400 
2394 4159 1538 1135 2027 188 2813 1156 821 
3265 2991 2877 2467 290 2891 3260 722 1975 
3688 2444 2751 1162 4105 3682 287 2868 4312 
2018 1208 3984 716 2860 3694 4287 2393 3117 
4127 1583 2389 2829 3250 2881 3325 3763 1101 
1537 251 1147 4296 4119 2045 2008 4113 4184 
2437 3323 3563 236 1143 300 2408 1165 404 
2890 2080 1133 385 4132 3986 1892 3324 1465 
3246 1173 2448 2445 3676 1160 4183 1532 4194 
1616 2892 2869 3743 2273 3314 536 3312 3693 
3309 2867 958 723 3199 3752 3162 2442 1604 
3375 1134 255 4218 1245 1440 770 1113 139 
1167 3151 2911 1609 3680 4145 1157 1571 3287 
2914 3275 1194 1974 3685 1159 1612 2087 4099 
697 1193 3278 2925 4161 999 265 3280 754 
3798 2845 2507 4234 2064 789 4263 2512 2479 
1136 2289 4231 1126 4138 1586 2927 2413 2068 
1563 2060 3702 2463 1127 689 319 3336 687 
582 3640 3999 1092 2079 2595 761 3348 2149 
2916 2930 1192 4203 2480 3449 1068 2852 3256 
2502 4206 691 2101 681 4230 4225 646 2915 
235 335 3710 2421 2474 2003 2485 2917 779 
2103 4200 2319 4170 1994 3349 4237 2929 2049 
760 1114 1124 4072 2504 3270 3719 684 765 
380 267 1525 1674 4213 3341 443 1647 3792 
1421 2382 350 2839 3773 1132 2910 693 781 
2416 4156 1723 686 4222 2109 2420 3271 1130 
3788 3714 3821 1653 3824 1195 3354 679 4146 
4221 2414 2913 4202 2856 4224 1212 3274 3765 
2937 1042 3277 3362 769 1621 2935 2428 1190 
3338 4233 1214 4236 2051 1289 1129 1916 317 
1651 1603 2370 1620 324 3436 1115 2088 1203 
2498 3698 2345 3366 3365 696 3352 3239 3451 
2062 2837 3279 2513 1177 1631 3769 3823 2000 
3786 2067 3353 3796 2926 3283 382 2424 3346 
1575 4021 2449 4318 2494 2796 1623 766 1215 
3804 322 776 1572 2372 2506 2410 3701 258 
271 2078 4325 1645 1185 2787 4096 2846 1652 
767 4144 4211 2057 1952 2770 2511 1564 1628 
2478 4155 326 4199 4220 2928 1658 3718 328 
1640 1629 1958 1860 2053 1560 771 557 3580 
1121 345 1639 3779 3019 3778 3360 3369 1120 
3785 132 1503 2853 1559 3799 2865 624 2833 
1992 1072 1507 2912 3272 699 1727 1630 3332 
683 348 2052 4153 344 3667 2061 2085 3342 
3801 2361 3350 650 1200 1176 2488 4229 3358 
264 1996 2568 1999 1648 2900 226 316 2055 
4217 3152 1112 3286 2346 3267 1638 4143 773 
1736 3712 3150 2854 2381 3361 3444 1576 3276 
3652 2919 352 2365 269 2431 261 2076 3288 
3226 2842 3335 1184 3359 3803 1972 279 3232 
1534 4196 3413 3319 3422 1910 713 4205 4175 
1481 2896 4180 2017 3740 285 2367 1103 2044 
2827 3697 3991 2323 1139 3299 1414 97 3372 
4186 1610 1110 667 3601 1404 3759 670 1577 
3289 1544 4063 2436 1581 709 1205 1099 4163 
2872 1978 2816 784 4059 396 730 2879 711 
2335 704 1148 4131 1474 240 3679 3302 3294 
1169 4295 2870 1469 1547 2564 2743 3749 3161 
233 2034 1166 4032 1585 665 3989 1578 1530 
2022 3247 2468 1161 707 3132 311 3742 2037 
367 3321 4117 273 814 3301 3744 1591 3407 
4158 2143 314 1582 3200 739 2739 2880 297 
3756 3689 3794 3593 3747 2454 2542 2886 304 
1222 706 174 3318 2888 2388 3257 3757 703 
1717 114 1485 4126 1588 1731 3738 3295 2447 
2863 2446 2023 3317 4129 3746 1718 2402 2010 
3304 3311 1551 677 2519 2977 2098 381 4189 
309 246 2397 4162 1632 1458 2905 726 4141 
2035 98 3379 296 1540 231 2472 3281 1847 
1140 2461 4195 2826 252 1154 2330 1090 1536 
1929 2460 2902 3249 2487 3410 250 701 1688 
1608 1102 2817 1987 3774 3674 257 2024 2883 
672 2043 254 1095 2360 4228 4210 694 2059 
294 3795 2903 2046 2089 338 1197 728 259 
1238 1181 419 3871 2882 3264 253 3331 197 
3273 1967 3664 777 2065 3334 349 2005 2850 
688 2429 2938 1179 2715 1642 332 119 3806 
1650 1561 2899 1300 3691 3282 2798 325 330 
2054 3356 744 2939 2001 2164 3345 3219 4095 
756 1655 3584 1213 3351 4044 2050 3343 270 
2154 3572 2806 318 2426 1977 2418 256 2173 
4148 2066 2844 1128 334 3828 2484 774 2797 
242 3269 3764 4152 4147 1644 303 339 2489 
333 1182 2500 331 1568 768 3771 1931 762 
1880 2385 1183 1553 764 3655 320 1206 2908 
4154 3768 2901 692 3340 1198 3775 347 4088 
690 3707 2083 4316 1201 743 1045 4157 2070 
1649 4019 2841 2904 2509 775 1625 1487 2510 
266 4151 3713 1627 1199 1523 1558 343 3371 
1998 1677 2284 1566 3363 4226 1122 1656 752 
141 3337 2455 989 1859 2514 2789 4137 3284 
678 1633 4093 1562 3706 3836 4142 2843 2508 
2923 3447 1997 3819 1513 355 1286 1875 372 
2058 759 4235 2906 1626 3704 3243 3651 712 
272 3700 1635 1556 2427 862 1567 1083 755 
3720 3638 2934 680 2716 230 2117 2970 1696 
3734 1979 1673 2887 2144 4283 1151 1989 3412 
1255 3383 4179 2141 1265 2898 2562 3809 2950 
2966 836 2038 3739 2099 3839 2543 2107 1985 
3725 3409 3399 276 1980 3315 4178 2945 2565 
4247 3262 2122 1584 4294 3841 2406 3849 395 
1543 3813 2115 702 2391 400 1266 3854 3829 
4245 3378 1703 2968 3843 3424 1550 1268 811 
3832 237 1271 2541 2515 2033 2544 4275 3403 
358 1218 4276 3722 1223 1710 2128 3748 4292 
307 2123 2864 3374 810 364 829 3380 357 
3856 1228 2401 813 2138 392 826 2392 1226 
394 4176 1715 812 411 398 1712 830 4299 
2858 1252 2521 1611 3408 1153 3382 2974 393 
2439 3844 3852 4250 1257 286 3381 2133 2399 
3384 2142 234 2097 4128 3860 1253 292 4240 
3400 2550 2031 2830 1258 2547 816 3376 1707 
2952 4244 1668 2951 1217 2131 1600 3428 3420 
3458 1145 2469 1580 4302 2975 4281 389 2140 
4297 1662 1278 790 1689 1248 2537 2987 822 
782 390 825 1606 666 1693 2130 1700 1533 
2518 406 1665 2116 1272 3833 1970 360 2546 
1671 2978 2092 3840 2129 1175 2090 3427 3847 
1663 3812 3018 2118 399 2940 1984 4124 361 
3835 1260 1225 2943 3857 2820 2893 401 1699 
3417 359 1098 1698 2941 2120 1613 3415 1708 
3425 4285 402 2557 1164 1246 2815 1545 2885 
2517 3421 1091 3865 2548 2981 2897 3741 2526 
806 4298 2985 664 2986 4280 3808 403 2029 
1270 838 2114 4289 657 1713 3724 820 4301 
842 2124 4328 1283 369 2450 795 1263 1254 
4291 3881 854 4242 3848 4261 2967 796 780 
1709 4254 2953 2956 3858 3320 3441 3805 1250 
4114 1587 1243 1220 412 3842 2145 3297 3368 
3834 1259 3327 4241 3807 2167 1657 1221 4309 
2999 2549 1204 3395 2536 1303 3003 1614 817 
3882 2157 371 2104 2100 2566 4258 1744 3875 
2147 1555 2958 1704 2984 2964 4272 2992 4317 
440 3012 3766 1666 2165 2168 1678 2994 431 
3884 864 4320 4264 3789 3419 3443 2594 420 
848 2921 2995 3820 2528 3394 4219 4331 4307 
2160 747 2587 4123 1557 850 741 2106 435 
859 4207 1683 3021 1725 3885 2581 441 1732 
1742 3339 2532 2838 1741 1216 1241 4259 793 
2530 2535 4306 1292 2909 4326 377 1236 427 
3016 3717 1287 2075 2499 370 383 3787 3880 
2423 1207 804 860 794 1738 2554 2840 3386 
2156 3357 847 2491 374 1290 1186 3393 853 
1679 2162 354 2490 2534 1242 3439 1180 3770 
4332 323 3446 3866 3000 2430 3440 2004 4305 
3015 772 2148 434 2105 2961 3429 4256 3814 
845 3802 3879 1722 2955 3715 1294 2495 1719 
379 3822 1189 2573 421 416 682 3370 3437 
2496 2172 1676 1118 1297 260 1743 3438 801 
3020 2111 263 2146 1734 3431 4310 750 2492 
2417 4266 2476 2590 2113 1570 3391 2584 1733 
1304 4239 3868 1726 3780 1636 3776 839 802 
3826 4271 4204 1735 1116 425 1302 4303 3017 
4208 436 1306 423 414 4209 2163 2150 742 
3863 2960 2571 3705 2575 2848 1737 3442 758 
3870 3825 1296 3455 753 1239 2477 4329 3397 
3013 2411 3388 1111 4314 1721 4290 856 3878 
3385 3011 1231 3777 2567 2174 819 841 1244 
2475 2159 2583 437 4265 800 1729 2166 3434 
3886 1301 3004 432 426 3456 3445 376 858 
1730 3367 3007 3453 2529 378 2997 3390 418 
2993 2171 4260 1634 4238 3861 1993 1291 1728 
808 1285 4262 3454 4304 3435 1295 2572 3005 
1739 1240 2483 1724 424 1305 2576 1308 2553 
438 2545 809 1256 1660 1720 384 1541 4253 
2523 2409 1276 2979 4279 3678 1667 3850 4277 
834 2135 4133 4116 2963 4243 2522 1695 824 
2126 1269 4293 718 407 827 815 2989 2947 
4193 4274 1601 2030 1277 1594 1705 2175 4273 
2552 4134 3416 2134 2556 717 1171 368 807 
2047 1137 387 1224 284 2972 2011 831 1249 
737 4135 388 397 788 3305 2539 302 1694 
1702 2561 1697 1261 313 4249 2125 2825 2524 
2438 2980 410 2132 673 1275 2983 3811 2969 
4125 241 786 2942 2988 791 3859 4255 2973 
1227 3426 408 833 1716 2971 2390 1262 288 
4181 2139 1690 2531 787 3736 797 2855 1105 
1089 658 3851 2137 1152 2944 1669 828 785 
2025 1691 1661 2136 1664 2996 2520 2127 3831 
409 1607 1670 3377 2527 835 2949 4246 840 
2443 1549 1692 2982 356 3405 2559 3853 365 
3837 4278 1714 2032 3329 391 3402 2560 721 
1597 1229 4288 1264 2093 1251 783 2965 2832 
3418 3373 2152 2689 2948 2048 2094 3810 1701 
1219 3873 3735 2563 363 3406 1106 2558 2946 
2096 4251 3404 2095 3855 2016 3675 1104 1172 
2121 405 1672 1685 2458 1680 2119 2932 3817 
792 676 749 4308 4324 866 2395 2834 1681 
341 3347 2931 375 4286 4319 855 4232 3355 
1282 2959 1230 2151 1569 1233 3432 2153 1554 
3268 2077 3874 4270 3890 413 1643 2836 3389 
857 2169 3014 4321 362 846 3864 1237 2538 