# vtk DataFile Version 4.0
Generated by LIGGGHTS
ASCII
DATASET POLYDATA
POINTS 4238 float
-0.23308 0.0113977 -0.240559 -0.210966 0.00855957 -0.244742 -0.189365 0.00971531 -0.244706 
-0.148013 0.0110486 -0.233202 -0.244082 0.00735794 -0.244808 -0.20021 0.00938535 -0.245008 
-0.180549 0.0149401 -0.244228 -0.158421 -0.000483936 -0.243787 -0.150955 0.00664031 -0.244847 
-0.140142 0.00514985 -0.244867 -0.17519 0.00653455 -0.238142 -0.21845 0.0136269 -0.240386 
-0.235493 0.0132395 -0.0172444 -0.244811 0.0117482 -0.234282 -0.235386 0.00547504 -0.231686 
-0.205175 0.00901194 -0.236344 -0.165449 0.00920052 -0.231851 -0.156587 0.00558548 -0.234923 
-0.153198 0.0113265 -0.20081 -0.215361 0.0118555 -0.230594 -0.184014 0.00522065 -0.232964 
-0.225355 0.0102636 -0.228698 -0.196381 0.00797319 -0.231143 -0.131019 0.00925342 -0.244985 
-0.205768 0.0111437 -0.226598 -0.187748 0.00841957 -0.224174 -0.175197 0.00559394 -0.225562 
-0.150616 0.00158209 -0.226425 -0.139755 0.00528929 -0.231283 -0.197498 0.0124281 -0.221134 
-0.235463 0.00393957 -0.221397 -0.214018 0.00864538 -0.221128 -0.166063 0.00594721 -0.221493 
-0.19636 0.0132244 -0.133481 -0.244945 0.00604884 -0.21664 -0.222501 0.00604267 -0.214328 
-0.213986 0.010008 -0.210894 -0.190233 0.00669708 -0.214614 -0.169707 0.00948752 -0.211561 
-0.158952 0.0029228 -0.213148 -0.138323 0.00361653 -0.21549 -0.23812 0.0127215 -0.213516 
-0.131222 0.00321755 -0.224124 -0.150251 0.00409108 -0.0333009 -0.17946 0.00817083 -0.216723 
-0.148061 0.00528169 -0.217436 -0.24484 0.0102985 -0.205905 -0.229985 0.0089945 -0.208321 
-0.220501 0.00801414 -0.203555 -0.204224 0.0107391 -0.213909 -0.197525 0.00616364 -0.207772 
-0.178242 0.00659134 -0.206848 -0.145795 0.00273159 -0.207583 -0.136002 0.00643261 -0.00804099 
-0.193661 0.0127349 -0.0143085 -0.1469 0.0124145 -0.00375995 -0.132242 0.00818281 -0.114174 
-0.211369 0.0112659 -0.20111 -0.171185 0.00684811 -0.199728 -0.152237 0.00839755 -0.0121806 
-0.22245 0.0129985 -0.0231405 -0.141572 0.0105411 -0.201246 -0.161799 0.0073501 -0.0315948 
-0.245004 0.0124992 -0.196055 -0.236727 0.00754236 -0.193437 -0.227285 0.00914029 -0.196301 
-0.201505 0.00704358 -0.198409 -0.191358 0.00941062 -0.198585 -0.161785 0.00387717 -0.201589 
-0.181475 0.00271811 -0.198109 -0.171403 0.0103831 -0.0255204 -0.220135 0.0106998 -0.189476 
-0.210934 0.0057604 -0.192645 -0.200222 0.00189973 -0.185578 -0.160746 0.013393 -0.186787 
-0.151999 0.0073906 -0.191457 -0.139336 0.0141914 -0.188963 -0.130512 0.0118924 -0.0572377 
-0.173233 0.00729794 -0.189831 -0.17039 0.00503014 -0.0062409 -0.217528 0.00846937 -0.000371116 
-0.24473 0.00791285 -0.18701 -0.229024 0.00855135 -0.18511 -0.210312 0.0079463 -0.182684 
-0.190543 0.00804856 -0.183769 -0.182679 0.00273839 -0.188155 -0.242526 0.0111754 -0.160936 
-0.189095 0.00654543 -0.00760224 -0.219187 0.00930224 -0.176509 -0.198167 0.00795566 -0.174393 
-0.176183 0.00495124 -0.180402 -0.165531 0.00711505 -0.180643 -0.155234 0.00707899 -0.178801 
-0.144216 0.00655672 -0.181948 -0.157418 0.014264 -0.0764479 -0.235503 0.0067255 -0.176315 
-0.203706 0.0149647 -0.179957 -0.181726 0.0128102 -0.183169 -0.160783 0.00940631 -0.170354 
-0.185708 0.013396 -0.0700291 -0.20793 0.00901878 -0.172514 -0.188441 0.00971341 -0.172884 
-0.180081 0.00452095 -0.171126 -0.170347 0.00434771 -0.167421 -0.140273 0.00524467 -0.169721 
-0.244678 0.0146042 -0.17222 -0.131185 0.0139402 -0.230237 -0.188552 0.00704624 -0.0279174 
-0.21511 0.011138 -0.124053 -0.244703 0.00321031 -0.166856 -0.21466 0.00484827 -0.166235 
-0.194407 0.00679493 -0.163773 -0.233745 0.0124337 -0.167431 -0.191487 0.0134989 -0.0851952 
-0.197721 0.00286769 -0.0116622 -0.171619 0.0142332 -0.163426 -0.150071 0.00268434 -0.169248 
-0.222906 0.00917732 -0.15814 -0.206851 0.00985657 -0.160107 -0.185549 0.0122985 -0.160141 
-0.178643 0.00226316 -0.159483 -0.159053 0.00531577 -0.16131 -0.14692 0.00782955 -0.161278 
-0.17967 0.0078347 -0.00356786 -0.147394 0.0138138 -0.0334853 -0.214305 0.0111325 -0.111535 
-0.244951 0.014315 -0.0128869 -0.244941 0.00237577 -0.154163 -0.233394 0.00926563 -0.157069 
-0.192498 0.00835269 -0.153157 -0.17783 0.00399644 -0.148575 -0.165402 0.0114378 -0.156064 
-0.15416 0.011102 -0.154754 -0.214191 0.00637699 -0.150666 -0.20196 0.0128726 -0.151733 
-0.209422 0.0145713 -0.0362154 -0.170812 0.0123941 -0.17384 -0.205249 0.00463954 -0.146304 
-0.16104 0.0134109 -0.147257 -0.145991 0.00792622 -0.14987 -0.132948 0.00582465 -0.152069 
-0.195597 0.0119763 -0.0634057 -0.225298 0.00552959 -0.143073 -0.196205 0.013096 -0.0249626 
-0.187498 0.0143008 -0.145901 -0.223772 0.0117031 -0.167844 -0.244754 0.00805569 -0.00509174 
-0.244979 0.00495268 -0.144266 -0.234901 0.00680342 -0.140424 -0.179921 0.0108845 -0.139735 
-0.235423 0.00596077 -0.00964554 -0.224616 0.0148162 -0.136816 -0.197073 0.010399 -0.143302 
-0.17225 0.00862079 -0.0155896 -0.138724 0.00835576 -0.030109 -0.215489 0.00660776 -0.132968 
-0.166164 0.0107932 -0.138728 -0.149217 0.00567272 -0.13988 -0.130261 0.0063038 -0.140305 
-0.225758 0.00991219 -0.00586541 -0.188499 0.00541277 -0.141252 -0.20718 0.0121861 -0.0630485 
-0.13925 0.0105458 -0.142655 -0.243148 0.00636894 -0.134546 -0.234121 0.00478624 -0.130401 
-0.183619 0.0106748 -0.130115 -0.170077 0.0119767 -0.124628 -0.157104 0.0074839 -0.132246 
-0.199772 0.00171871 -0.0253895 -0.223803 0.00526083 -0.126908 -0.204877 0.00674432 -0.128074 
-0.145031 0.00901109 -0.130371 -0.13496 0.00654227 -0.127793 -0.191876 0.00675256 -0.125929 
-0.140614 0.00848448 -0.119767 -0.163005 0.00936183 -0.0118662 -0.244968 0.0130719 -0.107011 
-0.24495 0.00213873 -0.125679 -0.23107 0.00394176 -0.120073 -0.208035 0.00695079 -0.118403 
-0.160498 0.00933386 -0.119395 -0.150421 0.00945378 -0.118079 -0.21858 0.00425344 -0.117564 
-0.198063 0.00927109 -0.11845 -0.140374 0.00797747 -0.0181425 -0.219149 0.0140879 -0.0385254 
-0.158425 0.0100576 -0.00100464 -0.244681 0.00418771 -0.113338 -0.22607 0.00735722 -0.11088 
-0.204119 0.0105949 -0.109812 -0.18931 0.00843624 -0.107118 -0.168827 0.00516046 -0.115417 
-0.161899 0.0099227 -0.1061 -0.130207 0.0140856 -0.132346 -0.235549 0.00994341 -0.10825 
-0.177954 0.0117038 -0.0339321 -0.224423 0.0118457 -0.0999936 -0.17909 0.0097753 -0.107664 
-0.150321 0.00866063 -0.107141 -0.214217 0.0142653 -0.0821309 -0.24403 0.00512508 -0.0974539 
-0.234128 0.00636274 -0.09847 -0.214288 0.00801885 -0.101993 -0.169951 0.00462118 -0.10327 
-0.16113 0.00777189 -0.0954978 -0.14058 0.00715952 -0.105564 -0.134839 0.0134187 -0.0999755 
-0.197514 0.0120719 -0.102407 -0.205717 0.00554032 -0.0958871 -0.189451 0.00820863 -0.0934341 
-0.180077 0.00661681 -0.0979899 -0.170853 0.00733634 -0.0910132 -0.139029 0.00407527 -0.0930043 
-0.214107 0.00530523 -0.0331319 -0.217439 0.00206443 -0.023373 -0.218114 0.00581509 -0.0929923 
-0.198594 0.012183 -0.0923334 -0.239289 0.0131696 -0.093265 -0.183567 0.00721648 -0.0849505 
-0.149835 0.00794761 -0.0904408 -0.211085 0.0129968 -0.0915575 -0.222443 0.0137974 -0.0881384 
-0.137704 0.0122589 -0.238162 -0.215319 0.00333002 -0.0817237 -0.204277 0.0107534 -0.0826562 
-0.173888 0.00999704 -0.0812342 -0.161535 0.00676324 -0.0215786 -0.1414 0.0137265 -0.0919941 
-0.163269 0.00963901 -0.0845185 -0.212261 0.00645126 -0.0160022 -0.244993 0.0130198 -0.081599 
-0.226981 0.0109989 -0.0795965 -0.192703 0.00732033 -0.077146 -0.18318 0.0049299 -0.0751869 
-0.161211 0.00485984 -0.0748364 -0.141213 0.00555903 -0.0743769 -0.244875 0.00452704 -0.016044 
-0.233212 0.00715589 -0.0250691 -0.132598 0.00696268 -0.0793115 -0.236641 0.00746744 -0.0780114 
-0.21239 0.00668408 -0.0726806 -0.198039 0.00264387 -0.0698663 -0.188505 0.00365697 -0.0645444 
-0.156105 0.00261106 -0.0651267 -0.244751 0.0121377 -0.0696901 -0.177901 0.00646962 -0.0668336 
-0.208512 0.0101275 -0.0258569 -0.156689 0.00973616 -0.220237 -0.136525 0.00394151 -0.065329 
-0.233376 0.00443302 -0.0665481 -0.222136 0.00884185 -0.0710392 -0.167421 0.00423651 -0.0670292 
-0.145683 0.00829153 -0.0638521 -0.244586 0.0028631 -0.0267131 -0.225753 0.00740587 -0.0155384 
-0.138057 0.0107744 -0.223071 -0.150185 0.00982466 -0.0247029 -0.241729 0.00963753 -0.0598011 
-0.203348 0.00296348 -0.058252 -0.173272 0.00476033 -0.0581356 -0.203629 0.0123632 -0.0723961 
-0.234161 0.0118648 -0.0505725 -0.224643 0.00918314 -0.0586746 -0.183213 0.0134395 -0.0603378 
-0.226648 0.00517679 -0.0496711 -0.217543 0.00905598 -0.0510536 -0.193664 0.00418118 -0.055791 
-0.181029 0.00791806 -0.0520258 -0.150509 0.00739901 -0.0548491 -0.244231 0.0120055 -0.0492663 
-0.181727 0.0035151 -0.013679 -0.225239 0.00782456 -0.0312927 -0.202608 0.00739074 -0.0334494 
-0.142886 0.0135619 -0.0528895 -0.23912 0.00456685 -0.0444993 -0.207596 0.00808945 -0.049004 
-0.17128 0.00873458 -0.0491742 -0.160482 0.0059459 -0.047288 -0.147516 0.00940585 -0.0424461 
-0.13194 0.00677642 -0.0455445 -0.190506 0.0040134 -0.0185172 -0.189997 0.00900626 -0.0476456 
-0.244805 0.00873555 -0.0358323 -0.233307 0.00359195 -0.0363162 -0.221853 0.00432199 -0.0406759 
-0.193274 0.00921206 -0.0365365 -0.181531 0.00603251 -0.0416919 -0.169138 0.00709075 -0.0389626 
-0.148039 0.0131183 -0.0724327 -0.182663 0.0108467 -0.0206508 -0.156136 0.013054 -0.0383633 
-0.161512 0.0128349 -0.206891 -0.20508 0.0117403 -0.0114145 -0.199376 0.0135372 -0.044179 
-0.200802 0.0125092 -0.0548744 -0.203101 0.013365 -0.189896 -0.219752 0.0135754 -0.145984 
-0.179254 0.0141604 -0.0914893 -0.237785 0.0119971 -0.148471 -0.150011 0.012009 -0.210283 
-0.131724 0.0116695 -0.170049 -0.180109 0.0123595 -0.195114 -0.170018 0.0142538 -0.0987139 
-0.17149 0.014399 -0.0628944 -0.135615 0.0140525 -0.158056 -0.172832 0.0143817 -0.14583 
-0.147476 0.0142809 -0.22376 -0.230089 0.0141801 -0.0660527 -0.235588 0.00688752 0.000328364 
-0.227935 0.0075993 0.00702006 -0.199161 0.011851 0.000714085 -0.186891 0.00559115 0.00349403 
-0.177557 0.00498613 0.00728478 -0.168051 0.00599646 0.0034499 -0.244899 0.00512053 0.00446518 
-0.15691 0.0130274 0.00875183 -0.141889 0.00104094 0.00638588 -0.228993 0.0134502 0.143995 
[...]
POINT_DATA 4238
FIELD FieldData 3
id 1 4238 int
5 3502 3543 3551 1341 1337 3898 1792 525 
3489 538 2638 476 480 3472 1783 1313 3494 
454 917 3483 487 2202 482 2182 1344 12 
3631 1477 3484 2178 2218 2210 3925 471 876 
586 3187 484 3190 3942 3063 3891 2223 4004 
2693 1354 475 2628 3922 1761 453 919 2299 
1332 1908 2339 1350 2216 1356 3464 2214 902 
2184 3466 481 8 2606 3056 2640 1401 3053 
3070 15 596 177 492 3182 3025 3147 3928 
3495 3035 909 590 2176 2177 873 2209 1420 
1413 477 1483 606 55 3926 62 1353 3946 
2219 1752 535 907 904 1918 3465 870 3047 
3112 910 2632 36 1797 3544 3542 1032 3059 
3057 2607 3461 2641 1778 465 3903 182 2629 
2633 3504 450 2256 1775 3511 3077 4034 2263 
490 464 1348 1793 3134 163 3899 3931 462 
880 1345 874 37 1762 58 89 1310 2197 
206 553 491 181 2636 1418 3044 1837 3491 
3113 59 3896 1339 1467 3051 883 2195 926 
912 868 10 2201 1330 2639 2220 1798 906 
3068 3163 53 3893 3643 1759 3635 2200 1362 
3487 1801 2764 1906 546 3894 510 3532 2180 
485 2599 900 3943 1355 3482 1849 52 924 
877 1322 1781 49 3189 3985 473 3032 2649 
3471 1357 2198 3490 1856 2211 1921 1751 1838 
905 2353 1 45 2205 1342 3076 1416 3951 
961 3159 67 889 3186 3459 3030 483 1795 
1019 1343 3630 2236 2217 2196 41 3028 1411 
2309 3929 1316 4066 220 1361 35 1340 1787 
3982 2600 3506 467 2645 1360 3521 3892 2698 
1054 38 1333 2334 9 1753 2183 3510 3468 
1912 3031 2643 2635 3104 11 493 869 2620 
1884 142 50 1777 3467 452 3026 1800 448 
2755 54 2337 1915 1842 1923 74 1363 488 
3029 3947 923 2652 2664 218 548 2179 77 
3069 1904 3531 3975 3202 1963 1443 2656 3236 
519 2 51 1393 3470 1865 4017 2605 3052 
2723 3474 2204 3064 4026 558 2650 3968 3971 
1470 3093 655 2203 3512 3917 4073 3964 1397 
896 3963 916 1060 33 4015 1938 3141 30 
1500 3106 17 953 211 1947 3046 503 1827 
931 3480 3513 2225 1528 3148 3578 2189 3213 
23 3973 2672 1767 93 1391 3953 3145 625 
3579 2661 1826 4094 470 499 60 2613 1394 
882 927 3537 3957 3979 4104 2611 1367 3538 
3569 496 1387 3097 1331 947 2374 1475 516 
29 4083 2667 71 1833 888 948 64 2239 
3094 2617 2363 3043 2233 1424 1763 449 3955 
3522 66 886 3645 937 1373 84 3910 3518 
2654 461 3039 3981 2615 3088 1061 1505 933 
4012 1071 3962 932 944 2677 1814 126 2378 
1830 3535 3048 88 3111 2244 3110 2663 2241 
4071 3534 3479 3906 3087 2253 1376 3101 1811 
1368 1516 25 2240 1809 4077 85 2678 2192 
1764 2768 1370 1862 514 1063 2356 2237 3949 
2653 1372 1051 76 2190 2230 3520 509 3478 
1389 1511 3657 2675 2722 69 2191 2234 32 
930 2186 3098 520 1429 3958 3091 1378 2227 
1962 507 2614 2188 3523 3539 3959 2232 2235 
1816 3103 27 3109 2707 3916 2238 28 4111 
949 95 456 559 1821 2809 3481 1390 457 
3529 2231 934 219 3561 94 3961 3107 1768 
1392 1808 1817 3528 940 3920 3045 3967 895 
2665 939 128 884 945 638 3976 2252 1423 
523 1815 3914 1374 1491 2674 1770 3966 3960 
1934 508 216 2673 955 72 2224 3083 500 
2193 199 1766 193 3092 1062 24 458 2668 
2222 489 881 1788 1911 99 13 1750 871 
1003 3509 1786 472 1950 915 474 1476 3038 
2208 1924 2185 1010 922 1774 3950 2756 1311 
1317 3927 3463 40 169 576 1366 7 3937 
3624 1351 2625 2181 2277 925 614 3074 608 
2207 486 1445 1325 2601 3902 1320 1031 3545 
3460 2634 22 634 2221 96 911 4050 3079 
162 921 3037 1791 2623 901 63 3469 966 
2602 466 1321 2746 913 2644 2597 2199 2752 
3049 898 3492 3078 3130 2631 1312 1044 4053 
1338 2269 1358 872 1757 2732 3195 3115 3120 
3065 1352 2328 154 3196 479 3116 3508 3108 
3071 2314 3061 3034 2598 1779 1346 46 3024 
3628 446 2325 1756 531 1408 3050 3992 2604 
1900 1315 2624 597 3036 2699 2646 2215 1359 
2326 1852 3897 1479 3923 1375 1796 176 1898 
3503 1758 1318 951 3033 1349 451 594 3940 
899 3180 1512 1755 3086 1347 3904 81 3215 
3177 1883 445 2379 2212 1406 3944 2627 16 
444 879 1799 468 44 3 3930 3994 2736 
47 3485 602 1784 39 3095 3486 2622 3938 
3905 581 3055 3054 2250 878 3919 1385 1834 
935 3041 2642 3909 513 3912 1520 2229 1328 
1371 2342 42 549 4097 80 3924 1802 952 
3978 1381 3936 498 2243 217 3477 2626 511 
1776 4013 1769 2659 2804 938 209 3969 3081 
1794 459 3222 34 501 1822 215 4082 3671 
3231 3907 1937 2783 194 2669 890 4103 86 
3153 75 4024 521 4085 984 2658 2676 3144 
463 21 2349 515 1380 3952 561 3970 3911 
1771 3516 2226 224 18 1807 628 1087 1820 
2254 1384 1369 2724 3980 956 1382 3475 892 
1828 1334 1336 1327 2248 929 518 495 4076 
1326 3533 1377 1395 3972 3476 91 1499 637 
2281 1386 893 2612 1772 2609 3229 3530 887 
3517 954 2657 950 1812 3956 1871 1813 2666 
187 3100 3921 2242 43 3527 1823 3082 3085 
2251 3915 3228 3090 522 225 1930 1819 2336 
1773 1824 2608 494 1810 891 68 1335 2228 
567 3918 497 1388 2670 2660 3515 3230 19 
1422 4106 894 4091 2651 936 3965 1785 942 
4080 512 460 1874 643 3080 2791 3648 4074 
90 2383 2713 3570 1329 3099 3158 1501 2637 
2679 3913 2293 2280 2610 506 3644 92 505 
914 2655 2769 1324 604 3604 149 1803 3599 
4039 589 158 4000 1012 1468 1851 4158 3933 
3598 3609 447 2762 1471 1319 1035 469 526 
2340 2042 2432 2763 1909 3622 1922 1854 3126 
3133 2310 3022 2271 996 2324 3170 1552 1412 
1016 1882 61 3552 1914 3167 3124 3610 4064 
2329 3619 150 1026 337 1839 112 2343 1841 
2270 2754 1040 974 2750 4005 585 3988 2040 
3191 3990 3574 2333 2259 529 1028 144 2301 
1400 4045 3114 1449 2757 1039 3560 1402 4041 
3760 2315 1447 4070 239 2702 1021 1043 4037 
178 1480 1023 1894 4173 3298 2020 2306 2268 
184 1789 3496 573 578 3220 3183 2275 346 
4047 1846 3895 1037 2687 2462 3178 745 106 
740 183 2327 2697 104 1085 3067 3606 1754 
2749 1749 962 2311 1398 2213 1446 161 3171 
973 172 977 959 1462 1451 1005 4055 2822 
4060 3688 3729 4031 4002 2316 731 109 151 
1913 3129 3996 3201 598 1901 105 3122 738 
2696 2264 572 1030 1024 968 2322 2686 1888 
504 2387 2690 3173 3596 1885 4048 4036 2206 
3027 1782 1018 2753 957 4043 1899 3733 528 
1453 1399 2307 2694 3948 3131 4190 173 2682 
1579 1637 295 4035 3592 2258 3121 530 3310 
908 575 297 2758 1452 101 3181 603 3555 
3615 639 3058 3629 3603 969 545 2861 1843 
675 2684 82 544 1850 3608 3174 1920 1409 
148 4078 1041 543 2734 4046 146 1314 4038 
2803 1886 1034 2725 3193 1405 1853 1419 1058 
1765 3590 116 1456 539 98 2274 281 885 
4049 3984 1536 599 1482 2685 1478 1454 1887 
3625 2276 3565 2255 2260 4042 4051 1840 4172 
3308 541 3618 3172 2648 1472 532 3168 542 
147 2727 4 3654 1013 1117 3613 3595 1430 
3690 1097 1995 1857 3233 1444 3553 1029 3932 
1760 1450 3160 2344 110 2771 555 875 623 
3709 3621 3611 3612 4057 1903 3205 2351 3728 
588 308 79 630 1437 2786 2922 1949 2709 
2918 2711 3995 3188 3258 2731 1100 3212 4006 
1473 127 987 1407 975 3105 3639 982 694 
1188 2347 1889 195 1119 223 1048 222 3672 
2916 1991 3908 3650 3784 1067 2291 2807 2292 
1131 1944 1428 3207 3146 2419 4136 1498 2630 
4014 748 3716 695 1425 2775 3577 3665 2781 
1932 120 4223 1379 1654 125 2688 2368 83 
653 2780 3224 1659 757 2415 70 2366 4090 
3673 2793 2776 3219 201 3137 1877 185 635 
2706 3573 1942 1926 342 2503 3525 1878 3632 
1052 565 4025 2720 124 2719 3540 138 2285 
636 4010 4150 2788 4216 551 122 1861 554 
698 2290 4081 4072 2380 2300 943 1881 3235 
983 641 1804 2384 2721 3040 2298 1955 644 
2056 208 113 3663 4139 3641 1196 1646 1080 
1439 203 3647 2355 321 562 1069 1081 1047 
1876 2847 1945 3571 2704 3585 4227 1939 1436 
2246 229 123 1431 340 3524 205 552 3646 
3216 4212 2703 3637 4089 563 1497 1957 65 
616 995 2247 2297 4100 651 2362 3801 1805 
3954 135 3634 4008 3135 3234 1427 2375 3526 
2245 645 2774 1574 1872 1879 647 4011 1941 
632 2283 1057 1508 991 3139 568 997 2799 
1649 502 4086 3781 1954 2772 3656 1492 2373 
571 3096 649 1000 207 946 3589 3238 1079 
1055 3140 656 3583 213 3581 3102 1082 137 
1515 1965 2718 564 3136 2712 1056 617 2086 
1946 202 994 1514 3586 31 626 3149 3660 
2359 1526 1527 1518 1086 2279 985 1493 1956 
212 1928 131 1049 3584 3576 4075 640 1863 
2802 1524 1490 990 566 4087 4098 1960 2794 
2790 986 1504 556 1880 3536 4023 627 2616 
2002 136 1211 648 1496 143 622 2505 928 
2907 268 1076 1869 4028 998 134 4027 1509 
1050 1070 2705 1933 3519 1438 4110 3977 2808 
1992 1873 1064 654 1864 1953 118 2074 3204 
3703 1396 1486 3166 1009 579 4033 48 2012 
3164 3761 1403 1038 4108 2464 3620 725 964 
2451 2730 2308 2681 2647 3473 2738 1109 1015 
1896 3616 2759 4065 167 574 145 103 967 
2312 3263 1592 4030 1011 3175 306 3125 245 
3556 3554 3987 3591 612 1460 2728 2396 2321 
3549 524 1902 2603 4007 3462 583 4067 4003 
1078 180 108 1890 3614 1461 2317 2305 2267 
1464 3128 3200 3605 3548 2265 2733 618 595 
4169 3558 3075 2692 963 1163 1893 605 2266 
1022 1004 3593 1844 592 4171 584 168 3127 
4062 2341 4061 587 1466 2009 2257 1417 2726 
533 4040 1867 3248 3217 4068 3607 2766 2621 
1036 3118 2701 1017 2889 1632 3602 2295 3185 
1905 3935 960 3559 3562 1790 4001 1014 2466 
976 157 547 577 1415 196 1510 4069 1459 
1365 198 2041 652 613 2748 3557 2691 4198 
1858 2376 4132 129 2760 2261 2272 1619 601 
3547 978 152 3686 1484 4052 918 2744 3154 
1448 170 3169 971 102 117 1455 1410 4058 
714 1027 3627 600 903 6 3307 2700 972 
593 2407 155 2680 2302 3998 179 2398 1897 
3119 3983 3197 3939 1891 537 4187 156 1919 
610 970 527 3623 1907 1917 192 607 2320 
2742 186 2761 1845 1474 1006 2354 2331 4115 
3692 3062 1825 1202 1959 3993 1441 227 3567 
3218 175 1210 1948 3575 1506 1383 1434 1517 
78 3156 1866 1046 965 3194 2278 4029 4022 
1059 3192 1053 4109 3241 1179 980 191 2382 
133 1565 2287 2784 315 620 1935 3208 139 
1488 2294 327 2717 3221 3242 3791 159 3711 
2425 1522 100 993 2671 1943 1426 4079 3237 
3587 190 200 1074 3203 1836 3649 2006 1123 
1432 130 121 3157 1990 1831 570 1084 4018 
1435 2710 3209 3658 3138 3661 3223 621 4088 
2708 2481 3783 3666 4215 3642 214 1442 633 
2785 1075 210 1494 2792 629 2662 2801 3653 
4092 2357 1073 569 3214 3143 2497 2773 2249 
57 619 3617 3662 2358 4112 642 2352 189 
1927 1077 981 4084 992 2364 3566 3142 1870 
1065 1002 4101 2778 4107 3568 550 1489 4009 
4102 2348 778 2282 988 1066 3668 3364 3211 
3588 1951 763 2795 2286 1940 455 517 2782 
1961 2386 941 20 631 615 3493 3708 3633 
4095 1966 1832 204 2350 3240 2779 1573 560 
3582 2937 3084 609 1895 3206 3659 1502 3594 
1495 2370 2777 2194 2369 1521 2377 140 3636 
989 1001 3155 2501 221 2714 2913 3669 3227 
2288 1925 329 1868 2187 2740 3333 228 1433 
4020 2805 166 2871 3252 1267 386 244 3314 
3162 1986 1586 1113 3794 2044 4105 1855 2332 
2875 3721 705 672 1582 3731 2403 710 1174 
2453 674 275 2013 3564 282 171 3755 4188 
2814 3600 1108 3303 3184 3323 729 248 2434 
2143 666 2829 4129 160 2884 247 708 1835 
1581 2810 1706 660 2765 298 3328 4122 1133 
4119 1093 3261 2954 2318 3726 3319 4186 700 
4121 2019 1007 2862 719 668 3313 2454 4197 
1542 611 3846 2026 3752 3293 3749 2303 669 
2007 3290 2879 3322 1688 2683 4192 1148 3740 
3730 2400 232 4130 2828 2819 2747 3291 3266 
292 1469 1548 2034 1103 274 111 4166 1969 
3677 3255 1602 2895 1547 4118 289 3687 659 
3737 3250 1982 4054 4162 300 1598 2894 1094 
3732 243 1551 1892 1149 1165 1166 671 1968 
734 2405 4126 2743 238 720 1987 1605 1988 
1158 3695 1138 1529 2393 1976 3165 3745 3754 
1531 273 2452 2824 3747 381 1983 1535 534 
3742 3727 4149 1596 2404 2821 1463 2071 4056 
3546 1593 814 1532 2735 1599 2435 4182 1590 
3326 1168 3676 2886 4160 2823 249 733 2866 
304 1154 2388 3759 4228 3674 2695 3257 1008 
1146 2811 1208 305 2440 3318 2338 1170 280 
3681 1090 3845 1142 3626 4183 2015 2878 2990 
1615 4113 1088 1583 580 727 3683 2874 252 
2465 1731 3317 1616 540 2831 2859 1641 4174 
4059 2408 1096 2741 2394 2304 4185 3758 2027 
958 299 1539 1107 2080 3311 283 1156 677 
3838 821 1711 309 3772 255 2389 188 1150 
2813 3265 290 4159 3723 4189 2890 3563 2891 
3260 1975 1848 2018 3682 1538 3753 2877 251 
716 2467 3117 4127 2751 722 2437 2868 3199 
278 2084 2045 3325 287 4184 1458 2444 257 
1161 4131 1101 2472 2330 236 3763 385 1537 
1457 1160 2826 2881 2008 404 726 1143 3986 
3694 310 1205 3289 2767 231 703 107 3410 
754 1141 2908 3680 2360 1726 3353 2914 1440 
1167 1245 1571 1612 2903 2088 2089 4099 3275 
777 1609 2854 624 2508 2052 153 3821 3356 
1194 1603 2925 1974 3287 3264 3700 697 3278 
1967 3331 4263 1112 4143 3451 1916 1126 1159 
4044 758 259 3284 999 3685 4231 4161 2479 
1127 2289 582 744 2429 2064 789 2413 1634 
319 3336 4138 2463 2935 3652 646 689 2060 
2149 3152 1068 3280 3702 1203 1558 3640 378 
1192 3999 1092 3256 2079 4230 759 3348 4206 
3343 4203 691 2101 2055 3572 3365 2865 253 
2455 2480 2449 2485 3719 1994 2917 4225 235 
419 2296 1560 4170 1182 2003 1176 2474 2066 
3349 2049 760 3270 4229 1650 2915 1638 4237 
1556 1124 765 2929 2504 1674 2844 3423 3792 
774 3341 316 3277 3267 1115 2900 380 4213 
2910 684 3670 2416 1647 2839 1238 1200 4222 
781 3271 4156 3350 2069 2420 3226 1626 350 
334 3704 3773 1132 767 679 1130 2414 4202 
4146 1653 349 320 3362 769 2595 858 1195 
4221 4093 2856 3338 1214 2428 1651 4233 1621 
4236 1289 1190 4224 2051 699 2882 1507 3279 
3768 1129 3698 3239 317 4210 1996 3828 3358 
2513 696 2109 3775 1723 3823 1648 1513 2841 
2067 3710 1620 2926 2070 2061 226 2058 2059 
1562 3352 3346 3804 3771 2489 3769 382 3276 
650 2512 2488 2085 3286 3796 4021 1564 2431 
2494 1523 1575 2510 3779 1999 3436 1645 1623 
3701 271 264 2800 1572 2372 2506 2078 766 
258 1185 2361 1629 3272 779 3651 1215 862 
4295 1952 2770 2511 1628 2057 270 557 2345 
4144 1658 2514 3718 328 1114 4142 4211 2478 
1860 4199 771 1736 4096 4220 2568 2845 326 
3151 3019 3225 4155 2103 775 1421 1958 3369 
1121 1633 1639 692 345 1181 348 3778 2853 
2912 1559 1727 332 4153 3273 3714 1083 2899 
2716 3707 1135 2729 114 2873 4196 2883 2273 
285 1910 1584 1617 3294 1197 2818 3249 1481 
661 3372 4175 4164 1147 1404 1033 4194 233 
2870 1414 3601 2021 174 1595 2876 3321 4165 
4168 4063 3262 367 3750 663 2446 311 979 
1544 2433 709 1546 1604 2313 1973 2812 1140 
730 2035 2817 536 2564 2036 1169 240 3302 
4176 2335 3309 2689 2014 1155 784 2262 3330 
291 1540 3375 3176 828 3132 1591 4287 4167 
3989 4163 2867 3304 4032 665 3312 3306 3316 
3379 3597 2459 1578 2448 3744 2745 3743 2039 
3757 1530 2487 2468 314 2739 3997 3161 3693 
2888 3327 4191 1589 277 3762 2397 4195 662 
115 2471 732 3751 1972 2880 1485 1099 2447 
4177 1173 3774 296 2457 1134 2456 1971 1098 
713 3738 3198 164 2445 1718 2460 3295 3232 
4117 2022 2519 3324 97 3281 2991 2860 4141 
1847 246 3991 2436 279 2892 119 2098 701 
2470 4205 2402 2023 396 3300 723 301 1102 
2367 1929 1608 3296 832 3422 3246 4181 2473 
2827 711 1588 3301 2441 3679 1162 1222 2902 
1981 3689 2816 1465 2896 739 3697 3292 1585 
2905 736 2461 3254 3413 3259 1110 2872 2037 
3251 2028 165 670 3746 1139 2442 704 4120 
1577 3684 3756 1610 2323 2737 1563 728 1042 
318 2938 1534 2043 2046 1095 1631 678 3795 
1561 3836 1157 2906 1576 2930 680 2164 265 
250 3245 2065 4218 1286 2923 688 1503 2934 
1136 2500 2068 2852 1998 687 267 3691 756 
4232 2715 2806 1213 2796 3806 2054 3282 3767 
1859 3345 256 2928 325 2484 2050 1931 331 
3788 1025 3655 330 2509 1128 2154 2833 2284 
755 776 1644 693 242 2927 4200 3798 2385 
1553 3706 1183 343 1212 768 3803 3354 1568 
2904 443 762 4325 3360 2426 3764 4016 690 
4318 1198 1120 1177 764 4154 2842 1206 3366 
324 132 681 4019 3786 3449 743 3799 1201 
2083 1300 303 1199 3361 683 3871 347 770 
2789 3371 1656 2410 266 3765 3392 1122 2787 
686 2846 1652 3337 1640 682 1566 2843 3288 
3269 3664 1997 2053 3243 3785 1875 3332 3363 
2000 4148 3342 1936 3667 355 372 272 1635 
3274 1977 3638 3150 333 197 1487 1655 3720 
4226 3580 3444 2024 3824 2381 2933 3712 341 
2001 2421 1567 1184 2062 752 3447 1072 3359 
2346 2798 352 761 2939 335 1525 2418 3407 
1642 1630 322 2507 4234 2797 4157 1677 2424 
2365 3713 4151 2371 254 344 4147 1625 1627 
2919 141 269 1045 2427 2173 2498 3283 2005 
338 4152 2901 2850 4137 2837 3334 773 3819 
712 4316 2319 2502 3340 2076 401 230 2117 
1673 2970 1256 1696 835 4242 4283 1989 1255 
3412 1276 2144 1657 2038 4179 1265 4279 836 
1707 2977 2093 3850 2949 3739 3725 2099 3409 
2562 3809 2543 3881 2950 1272 3839 1980 1985 
3315 2122 2135 276 4291 2983 1277 1224 2945 
1695 395 3320 4245 702 2406 2391 400 3843 
3841 1543 2565 4247 2544 409 3405 3849 1221 
2094 3854 3829 4250 237 4273 368 1587 3400 
811 3402 1268 3832 2541 1266 1271 1550 1709 
388 3374 807 3424 2123 4276 3837 2033 2864 
3856 4275 4292 3855 1137 2128 3403 1218 829 
791 2561 813 3380 796 810 4284 3382 1226 
411 398 357 2025 392 826 1220 1606 4299 
2527 1712 830 1611 2450 812 1153 2545 2521 
2898 234 358 2858 1671 2953 2974 3844 3852 
1253 1257 3408 3404 2142 4128 2133 816 3384 
2392 2942 2548 3399 3381 1710 2131 1254 2830 
4240 3414 1246 2952 3406 3376 1600 4125 1258 
2547 365 724 1217 2966 2975 1145 658 4193 
1227 1219 2126 2016 3247 1089 1689 1693 4302 
1700 2469 2951 1248 2130 1662 3807 3297 4297 
3853 2987 822 3840 1594 3858 1283 3416 782 
3833 399 1580 1533 2956 2136 1144 1970 2518 
406 2129 3805 2546 1661 3831 2118 2943 3018 
3427 1260 1601 824 1243 1984 1175 4244 3835 
2515 361 3848 1228 2893 4124 3428 3417 1613 
3415 2120 2399 1701 2097 1660 2560 2096 2557 
2941 3865 402 4328 3860 4285 1091 2815 1699 
2030 2885 1223 2985 3421 1708 2526 3741 1545 
4312 4114 2986 4289 1262 3873 4296 403 2897 
4280 4298 3808 1251 2152 2972 664 2967 2114 
1720 1713 1702 1250 657 3441 2981 1252 2124 
3724 369 820 4261 854 2107 4253 2989 2968 
797 4238 851 3003 3395 817 3385 360 429 
3880 865 2081 2536 1614 2104 2157 2549 4145 
849 2412 799 362 1622 1303 2984 1678 3875 
819 2834 2997 1685 2911 2994 4309 431 2100 
2087 2566 2596 4272 2931 1666 1240 4317 2165 
3431 3815 864 2999 1555 3789 4331 3419 3884 
2532 848 3699 2169 4321 2528 1204 741 4219 
3021 3890 2995 2160 2836 435 3820 850 1744 
2587 3874 3454 1732 1725 793 3777 2486 2156 
339 261 2106 1741 1216 1295 2530 1236 2174 
2162 2075 2909 857 4326 377 2838 3717 4306 
2102 1180 3437 794 370 3861 2535 3386 804 
2554 374 860 1242 1207 383 2499 2840 1290 
3008 1738 3357 3867 3373 1209 2992 427 2582 
3398 2491 1293 853 1679 354 847 4327 1643 
3770 2534 3446 1680 2585 1193 2077 4271 323 
2430 2572 2105 2004 2148 3782 4332 846 1676 
4323 434 2961 4305 845 3864 3863 1294 2422 
3429 3015 4256 3391 1722 2959 2495 3020 379 
442 3814 3715 3452 3430 3450 1297 1748 3882 
2591 3012 1118 2496 1125 3802 1743 3438 2111 
2492 263 3397 3822 439 801 2482 2161 2924 
4258 3887 2146 2476 3818 750 2584 1291 4319 
3776 1302 2590 3780 2163 802 4303 3017 1636 
1733 3006 2113 425 371 3826 3817 4260 1737 
3002 423 4208 414 4209 3825 2575 4329 1306 
1239 3005 3442 436 1296 1281 1686 2594 3455 
844 3876 2571 3388 3390 1189 1111 4314 2477 
856 4310 841 3878 1244 2583 1284 1721 1734 
2851 1299 2567 2475 3011 4265 3434 3886 2159 
3433 1301 437 2147 1729 2166 3456 420 2171 
2112 1682 1231 432 3339 426 3445 2529 4239 
3004 2993 1739 3367 3879 1116 3868 2921 3432 
1570 3877 3439 376 3370 1178 1683 3016 260 
1993 2579 353 1704 3396 2493 3883 809 384 
3383 4290 1703 3244 2048 4277 2523 2979 1717 
2017 2029 1541 3418 2141 394 3851 4135 4116 
2948 3299 706 834 2137 407 410 780 2115 
815 1269 1263 1694 389 2134 667 3735 2031 
2552 307 1715 3458 1705 3748 2550 831 1978 
2563 2855 4274 1275 1597 2145 2947 364 2542 
1229 3857 2522 3811 4251 1225 1104 2175 2553 
4134 3722 1105 2969 3810 2539 286 1259 2132 
3847 1697 2973 2978 391 3305 2438 1672 3678 
2524 786 3426 833 1979 1668 4255 363 2125 
408 715 1716 3420 387 1692 2138 4249 2390 
3736 787 302 2996 3859 1690 2140 3368 707 
284 4178 1249 2940 790 2092 2520 1171 2963 
1152 356 4241 1664 1270 1665 717 2946 2116 
2090 397 2127 1549 1663 4293 1714 2559 2121 
405 785 1667 4301 2443 3329 4281 293 1670 
4254 2863 1698 2032 2944 718 393 2965 3734 
4288 1691 838 412 1164 4282 2409 2869 842 
2558 2980 795 2047 1264 4294 390 2517 288 
673 2531 2982 2988 737 3842 3812 788 3834 
3813 2095 1261 2971 3425 1106 2439 438 3675 
4246 1278 4133 1607 2401 3377 2820 241 3378 
2825 1172 2011 827 2832 359 1669 2537 721 
313 825 3253 806 2010 2887 2556 4278 3007 
2960 416 2139 4324 3394 4269 1304 1234 2964 
2458 3355 2958 823 4262 855 2957 3013 2168 
440 4307 2119 3443 4264 676 1233 2151 3448 
375 1274 1735 4123 4266 3787 1557 2483 1554 
4320 837 3866 2976 1187 1230 4304 3014 1687 
808 3268 1237 1684 3790 422 840 1681 2538 