# vtk DataFile Version 4.0
Generated by LIGGGHTS
ASCII
DATASET POLYDATA
POINTS 4249 float
-0.182895 0.00500985 -0.244457 -0.172702 0.00510024 -0.244983 -0.234995 0.00517466 -0.245005 
-0.224985 0.00468431 -0.244976 -0.209214 0.00464587 -0.244978 -0.198223 0.00504203 -0.243547 
-0.161554 0.00509862 -0.244973 -0.14274 0.00550031 -0.242937 -0.244724 0.0104196 -0.244957 
-0.217131 0.0108968 -0.245007 -0.190603 0.0118126 -0.244989 -0.178075 0.0151931 -0.244913 
-0.16809 0.0145932 -0.244555 -0.137457 0.0139569 -0.244823 -0.215863 0.00472898 -0.237255 
-0.151681 0.00808943 -0.238172 -0.208228 0.0125473 -0.238978 -0.160983 0.0111248 -0.236 
-0.245 0.00658958 -0.235116 -0.168459 0.00465889 -0.234602 -0.234787 0.0109642 -0.235633 
-0.225329 0.00774091 -0.235471 -0.19401 0.00997829 -0.234356 -0.179294 0.00568952 -0.234953 
-0.142164 0.010353 -0.233359 -0.243536 0.00511067 -0.225342 -0.218899 0.00463972 -0.227751 
-0.145195 0.00467701 -0.225001 -0.228195 0.0076088 -0.225666 -0.210703 0.0102959 -0.228866 
-0.193241 0.0095453 -0.224224 -0.173627 0.00843099 -0.226699 -0.163825 0.00685417 -0.225667 
-0.154121 0.00907861 -0.224695 -0.13314 0.0062397 -0.229164 -0.212683 0.00468538 -0.21972 
-0.136812 0.00486815 -0.219582 -0.244644 0.0151315 -0.223191 -0.235263 0.00938455 -0.218441 
-0.202676 0.0103048 -0.220828 -0.183519 0.00921126 -0.220637 -0.243892 0.00772777 -0.213604 
-0.225181 0.00458438 -0.216677 -0.164228 0.00468751 -0.215296 -0.149781 0.00708704 -0.215726 
-0.188374 0.0141404 -0.132343 -0.176854 0.0116004 -0.212983 -0.141229 0.0121454 -0.214056 
-0.232161 0.00510558 -0.208012 -0.146256 0.00496812 -0.206478 -0.218701 0.00464841 -0.206751 
-0.156651 0.0048572 -0.208738 -0.208513 0.0102212 -0.207708 -0.19769 0.0133802 -0.209181 
-0.183616 0.0141704 -0.205983 -0.166101 0.00500702 -0.203869 -0.136778 0.00675244 -0.202712 
-0.245005 0.00989717 -0.203862 -0.225349 0.00928513 -0.20095 -0.201729 0.00986197 -0.200376 
-0.174841 0.011969 -0.200419 -0.153723 0.00744492 -0.197343 -0.143441 0.00475684 -0.195322 
-0.235093 0.00943254 -0.196215 -0.214072 0.00880606 -0.197781 -0.188179 0.0127705 -0.196642 
-0.244683 0.00518754 -0.190236 -0.198256 0.00537774 -0.18654 -0.226772 0.0119605 -0.191173 
-0.217172 0.0108294 -0.188413 -0.180555 0.0141367 -0.19029 -0.169267 0.00859104 -0.191481 
-0.159468 0.0110555 -0.189576 -0.148113 0.0111974 -0.187205 -0.135166 0.00840752 -0.189521 
-0.234828 0.00459951 -0.186461 -0.141275 0.00457517 -0.182086 -0.244842 0.0124293 -0.183255 
-0.208947 0.0117734 -0.182787 -0.19077 0.0120011 -0.18623 -0.244793 0.00488576 -0.17619 
-0.214518 0.00488891 -0.178173 -0.176799 0.00732626 -0.180874 -0.167828 0.0064987 -0.176544 
-0.132506 0.00469345 -0.175192 -0.233061 0.0117494 -0.179817 -0.223235 0.00992423 -0.178708 
-0.195484 0.0126944 -0.17724 -0.184934 0.0123717 -0.177898 -0.158558 0.00808459 -0.180044 
-0.204901 0.00780278 -0.174511 -0.188274 0.00701298 -0.170049 -0.174938 0.00529204 -0.168878 
-0.147982 0.00758911 -0.175256 -0.156028 0.0116059 -0.170624 -0.244941 0.00549246 -0.166199 
-0.227244 0.00667225 -0.168596 -0.163158 0.00483493 -0.167511 -0.236852 0.0113745 -0.168287 
-0.209527 0.0128946 -0.165587 -0.199595 0.0106485 -0.166501 -0.13967 0.010549 -0.167436 
-0.129994 0.0124936 -0.169049 -0.184704 0.00518007 -0.159386 -0.17437 0.00529498 -0.15788 
-0.149246 0.00563141 -0.160654 -0.132657 0.0062491 -0.16065 -0.23149 0.0102969 -0.159827 
-0.22176 0.00766112 -0.160052 -0.21337 0.0137277 -0.156197 -0.164452 0.00648364 -0.157592 
-0.245009 0.00467048 -0.151998 -0.234988 0.0046576 -0.152358 -0.207515 0.00463538 -0.154147 
-0.195188 0.00847992 -0.155919 -0.24002 0.012987 -0.154437 -0.154431 0.0118835 -0.152054 
-0.140798 0.00986067 -0.156086 -0.181089 0.00524047 -0.148141 -0.161751 0.00471585 -0.147186 
-0.225613 0.00744195 -0.149944 -0.21574 0.00852686 -0.148003 -0.20377 0.00822251 -0.145138 
-0.151041 0.014575 -0.204492 -0.171289 0.00731958 -0.148364 -0.163352 0.0146351 -0.147134 
-0.158749 0.0127468 -0.00423414 -0.23855 0.00480716 -0.138548 -0.226439 0.00567682 -0.13985 
-0.244988 0.0112209 -0.142829 -0.23417 0.0126084 -0.143242 -0.187179 0.00942288 -0.141469 
-0.145546 0.0121562 -0.143917 -0.133886 0.0147387 -0.138126 -0.216732 0.00718904 -0.137936 
-0.20708 0.007353 -0.135293 -0.196696 0.00810127 -0.138028 -0.177501 0.0105427 -0.138895 
-0.168104 0.0126921 -0.135594 -0.157761 0.00916225 -0.134765 -0.142972 0.0133184 -0.134108 
-0.223374 0.00746426 -0.130385 -0.187452 0.00463317 -0.129167 -0.244975 0.00955692 -0.13261 
-0.233196 0.00893703 -0.131196 -0.197041 0.0119514 -0.126859 -0.152018 0.0140937 -0.126723 
-0.226706 0.00460257 -0.121202 -0.216835 0.00869603 -0.122836 -0.17204 0.00508465 -0.122415 
-0.154988 0.00474299 -0.124522 -0.244514 0.0106041 -0.121555 -0.233415 0.0119016 -0.121642 
-0.207295 0.010909 -0.125187 -0.163328 0.0102072 -0.1235 -0.138354 0.00875341 -0.12194 
-0.191425 0.00474466 -0.119934 -0.148063 0.00666286 -0.117377 -0.210625 0.00868804 -0.114984 
-0.200719 0.0121801 -0.117589 -0.174966 0.0129125 -0.116807 -0.236 0.00553607 -0.114274 
-0.154077 0.0048483 -0.109633 -0.230856 0.0128426 -0.109551 -0.221189 0.0102045 -0.11386 
-0.185227 0.00815549 -0.112831 -0.163231 0.0135509 -0.113942 -0.146685 0.0121965 -0.108937 
-0.133831 0.0132443 -0.109402 -0.165963 0.00527622 -0.108734 -0.243958 0.00653057 -0.108307 
-0.214381 0.00609755 -0.10493 -0.196692 0.00472136 -0.108964 -0.174041 0.0100854 -0.104465 
-0.139548 0.00498287 -0.10816 -0.24503 0.00464423 -0.0966845 -0.235132 0.00497794 -0.101741 
-0.206425 0.00711931 -0.0989188 -0.18771 0.00548636 -0.10171 -0.148949 0.00481102 -0.100739 
-0.244063 0.0136591 -0.100834 -0.228119 0.0106703 -0.0961192 -0.159066 0.00861984 -0.099807 
-0.139281 0.0113225 -0.100417 -0.236961 0.00506658 -0.090601 -0.196733 0.00489089 -0.0969905 
-0.132701 0.00502445 -0.0941051 -0.21692 0.0111099 -0.0963461 -0.181037 0.0132416 -0.09632 
-0.141341 0.00899687 -0.0909159 -0.227234 0.00493417 -0.0873434 -0.200718 0.00477482 -0.0873635 
-0.188913 0.00479406 -0.0883631 -0.178884 0.00486718 -0.0889055 -0.245008 0.0125332 -0.0904367 
-0.218558 0.0130325 -0.0852481 -0.210532 0.00649945 -0.0881054 -0.168618 0.0126694 -0.0877932 
-0.158202 0.00939714 -0.0895202 -0.244985 0.00517195 -0.0837568 -0.216574 0.00458356 -0.0804346 
-0.172661 0.00514999 -0.0799888 -0.147232 0.00466806 -0.0841043 -0.132352 0.00645681 -0.0841755 
-0.228294 0.0136295 -0.0820637 -0.194546 0.0130009 -0.0807297 -0.160709 0.0136627 -0.0797744 
-0.143893 0.0136276 -0.0804897 -0.1551 0.0051074 -0.0753546 -0.138339 0.0053389 -0.0761524 
-0.245042 0.00638318 -0.0738753 -0.236022 0.00460064 -0.077668 -0.1993 0.00533968 -0.0763344 
-0.189068 0.00467156 -0.0774915 -0.180375 0.00784023 -0.0737714 -0.205341 0.0135238 -0.0780384 
-0.220539 0.00472564 -0.0712959 -0.140995 0.00524376 -0.0662243 -0.230002 0.00777839 -0.0703517 
-0.205858 0.00891623 -0.0691808 -0.195991 0.00996475 -0.0678635 -0.164872 0.0105369 -0.0708674 
-0.140831 0.0149836 -0.0710231 -0.239157 0.0048269 -0.0659727 -0.223227 0.00501952 -0.0613764 
-0.212374 0.0052471 -0.0626081 -0.155082 0.00519486 -0.0646419 -0.174934 0.00688646 -0.0644068 
-0.139321 0.00479074 -0.0559618 -0.244896 0.00595991 -0.0577972 -0.192712 0.00722945 -0.0566962 
-0.162043 0.00512226 -0.0568964 -0.149287 0.00526013 -0.056508 -0.235595 0.0120823 -0.0565031 
-0.202487 0.0101098 -0.0571926 -0.182866 0.0097907 -0.0572444 -0.14187 0.0136268 -0.0607853 
-0.202431 0.00471257 -0.0487807 -0.236205 0.00636712 -0.0482183 -0.221647 0.00601039 -0.0513203 
-0.211766 0.0053622 -0.052454 -0.132495 0.0112025 -0.0524289 -0.228633 0.0130018 -0.0492671 
-0.187989 0.00494778 -0.0481726 -0.178412 0.00868225 -0.0483445 -0.167402 0.00476712 -0.0476419 
-0.155255 0.00789083 -0.0485812 -0.244109 0.00862341 -0.0425195 -0.144962 0.00837944 -0.0460572 
-0.182932 0.00506855 -0.0387413 -0.234432 0.00577976 -0.0383396 -0.21102 0.00530297 -0.0412034 
-0.174177 0.00939818 -0.0365522 -0.151584 0.00477097 -0.0394167 -0.137779 0.00467498 -0.0402002 
-0.220271 0.0092308 -0.041468 -0.191461 0.0104028 -0.0380589 -0.163971 0.00939151 -0.0387098 
-0.244894 0.00483075 -0.0327402 -0.226601 0.00577317 -0.0321211 -0.138871 0.00462245 -0.0302386 
-0.217088 0.0102375 -0.0306162 -0.20094 0.00887399 -0.0352467 -0.156405 0.00947386 -0.0317693 
-0.146172 0.0114797 -0.0331054 -0.133756 0.0123515 -0.0338314 -0.175257 0.00469191 -0.0278147 
-0.236047 0.00631679 -0.0255307 -0.20862 0.00460633 -0.0265024 -0.189916 0.00483869 -0.0296299 
-0.148448 0.00630157 -0.0248713 -0.200101 0.010506 -0.025218 -0.182498 0.011556 -0.0281389 
-0.165143 0.0117132 -0.0273787 -0.244987 0.00521591 -0.018222 -0.224953 0.00608483 -0.0222511 
-0.194284 0.00463798 -0.0196825 -0.168939 0.00473512 -0.019897 -0.215669 0.0101423 -0.0191549 
-0.174659 0.0127322 -0.021864 -0.157115 0.00957725 -0.0210686 -0.135626 0.00904026 -0.0218308 
-0.235271 0.00514394 -0.0151888 -0.17637 0.00473615 -0.0129554 -0.204321 0.00518659 -0.0160639 
-0.185107 0.00870262 -0.0163462 -0.143691 0.00469775 -0.0158924 -0.245004 0.0152858 -0.0144359 
-0.207076 0.014662 -0.0150477 -0.14947 0.0129136 -0.0148264 -0.198313 0.00507938 -0.007491 
-0.223056 0.00789854 -0.0111286 -0.20917 0.00616009 -0.00637562 -0.185152 0.00466259 -0.00719436 
-0.153926 0.00459319 -0.00957714 -0.132388 0.0048782 -0.0107699 -0.191269 0.0140901 -0.0220923 
-0.192226 0.0131018 -0.00986504 -0.179126 0.0126171 -0.00713148 -0.167683 0.00947709 -0.00814798 
-0.174729 0.00510564 -0.000125875 -0.140354 0.00654615 -0.00480739 -0.243859 0.00968334 -0.00548398 
-0.229828 0.0118367 -0.00406687 -0.203395 0.0144342 -0.00124984 -0.131028 0.00517492 -0.0623509 
-0.227901 0.0132375 -0.212653 -0.136063 0.012726 -0.180021 -0.183803 0.0138627 -0.0663257 
-0.130585 0.0136566 -0.00574615 -0.17112 0.0147614 -0.0443936 -0.229156 0.0147724 -0.0394039 
-0.157815 0.0142717 -0.244949 -0.1436 0.0146929 -0.196461 -0.202009 0.01457 -0.0939021 
-0.23658 0.0144172 -0.0761902 -0.244744 0.0139629 -0.067469 -0.194039 0.0143297 -0.0489066 
[...]
POINT_DATA 4249
FIELD FieldData 3
id 1 4249 int
3898 1003 1786 1774 2202 3543 474 4033 1341 
2638 3483 3489 1792 469 1783 3631 1313 1777 
480 2210 445 917 451 538 1477 3930 2215 
4066 487 1337 3187 484 2217 7 3891 3065 
3610 1323 2178 2627 453 879 3484 2216 3190 
1837 4004 2337 586 919 2182 3024 2625 3922 
2606 1325 3056 1354 2628 47 2176 454 608 
922 2185 1420 3495 909 911 3053 2208 1353 
3025 531 1448 3035 177 471 2634 3070 39 
62 486 477 1483 16 2622 912 3061 492 
1796 1338 2607 1413 535 2207 2177 36 3938 
2632 4034 3946 1789 2325 3511 2603 3624 1312 
3931 466 1778 3504 53 1310 2221 1797 3545 
3059 3461 1363 910 491 899 1842 1793 488 
1054 3049 3894 63 46 880 1791 576 448 
10 1348 1339 1321 3134 163 1758 966 2314 
1762 926 4053 1798 881 614 2746 2644 915 
1346 2636 1418 877 1349 2629 3925 1756 3469 
3079 1355 3532 1781 2752 1906 2277 2764 2220 
2649 3471 3189 2339 2200 3 1352 905 3196 
3896 3943 2732 52 1357 1416 908 872 1411 
3985 2639 3544 2699 1884 3944 1031 1408 485 
3490 1342 3992 1849 1788 924 2600 1924 45 
581 2309 2647 1361 2211 2621 1315 1900 3459 
1787 3159 3071 3899 3630 55 868 3076 1856 
1759 3607 1784 3186 446 1838 1019 3932 3947 
2599 74 1005 3491 467 3028 2645 1912 3904 
1360 1340 2756 3892 2698 2196 3506 41 473 
3510 3468 875 3030 1365 50 9 1347 1396 
3032 490 2620 3897 472 869 3104 2236 3108 
2223 3923 2183 176 2635 1316 462 3064 883 
3033 1950 1904 38 3047 873 634 594 476 
3940 625 3467 3928 3542 3147 2353 1356 3994 
516 3903 902 2179 169 3929 935 2604 960 
1755 606 1406 2605 1905 3503 482 3902 3120 
3485 2646 1753 493 1911 3464 1795 22 3958 
206 3919 1908 874 1794 89 3086 3470 2336 
914 3949 2664 175 3936 1802 4026 3105 80 
3081 1371 3527 916 81 2652 1359 3963 2642 
3229 1379 2659 4071 3093 2656 3236 4080 1470 
505 3975 511 3968 4015 2637 2655 2617 3520 
3213 2203 3513 3052 2204 3971 4073 1069 3041 
1813 896 953 3148 3917 3918 3145 1074 91 
1332 2225 2250 33 3969 890 17 2672 499 
1367 1767 3228 2804 136 1328 2679 2235 882 
4076 2239 1501 4103 1823 1475 64 2374 3242 
931 3480 2670 1937 4094 1827 2294 461 23 
948 947 1381 1331 3955 1394 4104 3094 2661 
1785 2233 21 1819 2653 4024 3907 1373 66 
888 496 2280 1505 3099 1814 886 3910 3570 
2615 1833 3912 3088 1061 549 950 3518 3474 
86 936 3524 3097 2244 4106 2663 3534 3479 
1811 2237 19 1807 2247 1497 628 3039 2677 
3517 1500 18 2229 1809 561 3111 1830 3103 
509 2242 4017 1057 944 2253 1771 514 3657 
2356 1879 1376 1384 1382 3478 1063 981 2612 
2768 1389 1808 3087 1370 1429 20 1862 2186 
1511 1874 78 2243 956 520 1764 2230 456 
3523 2724 494 2226 3539 3107 3098 1962 1436 
2240 2188 559 2347 1963 1378 1377 3529 3109 
459 3153 929 3911 27 2234 637 1383 2707 
2769 2614 3045 3964 3960 1821 4074 1327 1768 
3972 3476 3967 1770 95 2809 954 939 128 
1423 500 1816 3481 1815 1326 1390 3046 934 
2674 1871 895 3976 2192 4012 3048 932 2231 
1391 1386 3966 3083 2608 1772 2224 3953 3915 
2613 3528 457 3956 3204 2189 69 1071 3913 
3091 3085 72 3092 1516 3906 3090 1060 85 
942 503 76 2232 1824 3538 460 68 1329 
517 2660 3535 567 940 71 3230 193 2378 
3578 955 1374 523 1499 2349 3084 2669 2 
1392 84 1388 507 219 3973 211 3141 3054 
1921 2597 99 3494 5 3502 3034 3498 2209 
1366 2640 1344 3460 1757 3551 3472 13 871 
3950 3942 3927 8 3492 3038 12 3055 40 
3462 3063 475 1750 901 2184 1779 876 1800 
44 1319 2218 590 464 525 529 481 3466 
1350 1761 489 3180 3074 3029 2222 1752 3487 
2214 596 3635 3486 907 15 2601 3465 468 
1345 1032 2736 3077 2641 3509 1317 4050 54 
444 2256 904 450 3051 37 2212 3926 2197 
96 2195 2602 1445 3068 181 3057 3037 3163 
2263 2631 3112 925 59 3941 906 1318 1467 
3027 1801 58 2328 602 921 918 591 3893 
3130 162 49 3195 898 3115 1358 2623 968 
1362 3482 913 1044 3116 2201 1898 1322 2180 
546 2624 3463 3078 951 2198 1923 2755 2744 
2219 900 961 2648 1330 2598 1852 2205 3026 
35 3508 1751 3951 1375 142 2199 3060 519 
452 1351 1799 3905 483 2321 3493 3036 2326 
1760 1343 11 2626 1834 1479 2181 67 4049 
3561 479 3095 510 3982 1333 3521 3050 3182 
3069 1401 2334 2766 889 1311 1775 34 878 
3031 70 1895 42 2643 1393 77 952 3202 
2342 3044 2650 548 1443 2633 51 2723 3924 
2379 3512 1953 30 2667 3648 887 3477 933 
3978 498 3671 43 1528 512 470 892 29 
938 558 1776 88 3515 2288 93 60 1397 
2252 2611 3537 4083 92 215 3106 1422 1080 
1836 3965 2791 1826 1820 3516 1424 3914 2241 
2363 4020 3530 2662 3957 3522 449 2249 1387 
1763 2654 3979 515 495 4077 501 3981 75 
3645 187 1822 4091 3970 3962 1945 497 3101 
2251 2610 126 3144 941 2665 3110 224 3916 
194 1334 217 2248 518 2254 1087 984 463 
2678 1828 2227 1372 643 1336 2676 2191 937 
458 25 1810 3475 2651 3082 1385 2807 930 
1934 992 3531 2190 3533 2666 216 513 2783 
2722 1051 32 3920 3644 1527 949 1769 4097 
3100 24 1369 3952 2193 3043 79 2673 2668 
4098 521 199 2238 884 893 2658 2657 2713 
1812 3080 3569 28 1395 506 225 2609 927 
1930 3980 3959 508 2228 2675 3921 1062 894 
1335 945 1076 1773 2383 923 891 90 218 
3961 4082 48 155 1803 4039 3599 1009 2317 
1035 149 604 3126 1455 589 4115 3933 3552 
112 447 2340 2466 2042 1461 3622 978 526 
2762 3619 2680 1447 4070 3473 4064 1845 2464 
1486 1026 967 2329 1922 1839 2271 3983 1854 
1103 150 3760 2451 1040 3133 1404 1410 160 
3119 2759 3298 1841 3556 2333 4001 3560 1480 
2301 4041 306 2683 3988 3075 103 714 1015 
1412 578 3986 573 1012 2687 2020 2267 2462 
179 1896 536 4060 106 2331 1894 3178 2312 
2259 4057 144 574 2697 610 962 1909 4065 
977 3987 174 2749 3496 1468 4192 3895 4030 
3067 1023 2327 2311 598 1038 161 3729 4047 
3623 1462 731 527 1846 1890 1919 186 612 
2686 117 2694 3606 3173 957 973 183 4169 
1754 4054 465 959 1595 3996 4031 583 156 
2761 970 4003 3169 281 4043 172 3129 1030 
3177 2265 1579 3997 2696 1913 3131 1018 108 
1024 2398 2695 1782 1897 572 2307 530 3555 
3692 4190 3128 2269 1022 3121 2387 3124 3559 
2275 3548 154 3181 3615 109 2320 2305 2691 
1452 167 603 1484 1850 1920 148 3603 3948 
544 1466 2206 2753 1886 605 3984 2685 3592 
4038 2861 116 2726 1883 2700 1857 1409 3614 
4172 1482 3308 2344 599 4052 2803 4198 545 
1853 168 1430 3690 2274 3200 2213 2260 2257 
3590 3621 3608 3193 3990 4062 1029 2341 4051 
98 239 3317 2310 3618 2889 1867 1058 4042 
1399 2332 1013 1450 976 2738 2023 110 504 
1043 3191 4007 3613 542 533 3611 1637 2741 
1004 2261 4046 3160 745 4 2295 601 609 
2822 1036 3612 2396 1512 2306 3058 2682 308 
3114 3594 2748 1415 3629 4108 3172 996 129 
159 3167 2351 4078 2322 2702 1471 3205 3175 
1419 3300 1510 1400 3643 82 2276 2041 1405 
4069 2758 3209 3654 184 2763 2299 623 3733 
2742 2268 1210 2922 1790 346 102 2709 118 
979 1028 3761 3609 3201 1314 607 1016 588 
1010 1444 2343 2408 1014 1907 3122 295 537 
541 3558 547 145 1460 3022 3263 222 3596 
2725 1017 675 1476 1882 1887 1843 1844 3993 
198 57 3212 963 4035 2319 1100 975 3220 
2278 1440 2731 1889 151 4100 3995 3908 195 
1048 585 3188 1194 1936 1495 1179 3158 4087 
3194 618 982 2786 4029 1865 3567 1473 1407 
191 2507 3146 1938 3574 1188 1947 2292 3235 
3650 3280 3579 653 1916 2290 3639 1052 980 
630 3333 1067 185 4006 133 2368 2194 1565 
1025 4223 2775 3221 1932 3716 695 646 655 
4014 3241 1517 1131 315 1428 1878 3222 4008 
3137 2793 3703 3673 620 100 1927 1942 1659 
4025 635 642 1804 1502 2706 228 4150 1881 
757 1426 1925 1868 3525 2380 993 205 1951 
221 641 3668 2300 2415 2497 3663 3203 2282 
2719 2847 2788 3040 3208 1431 1432 1506 3237 
3646 2703 3637 3641 3571 2355 2704 570 321 
208 4081 3585 1939 557 3216 3783 3666 140 
2298 4011 563 3653 1438 340 2362 651 2720 
200 229 2074 1966 4089 632 1059 1941 2801 
210 2069 1805 2297 997 2370 1442 3234 2373 
647 3642 135 3583 1075 1574 2086 569 2772 
1073 1000 1492 1055 3526 502 3227 568 2293 
619 3214 1380 2708 633 3139 1435 2800 2799 
2358 991 3589 2364 3575 2787 656 1046 571 
3140 946 1965 2279 3669 649 988 1863 3581 
137 1572 3136 2359 994 1515 1946 202 189 
455 1077 556 985 1866 3102 31 1065 1496 
2372 1514 3155 3225 989 1082 3658 1066 1870 
3149 3588 2789 1928 3586 1086 3096 2795 143 
4084 1956 4102 1049 3670 1880 1433 1001 131 
2790 4023 522 1817 204 648 2782 3536 227 
627 1877 1766 4085 2056 65 615 694 1961 
2714 1524 2350 1520 1832 2501 3667 4028 1960 
550 1050 1488 928 1211 1056 268 3909 2505 
2779 2808 3540 3647 1869 134 2375 622 1368 
2187 201 554 560 1509 3651 3977 3633 3211 
1573 3577 3632 4110 562 1933 1493 3778 2246 
3661 640 3566 127 3659 885 220 1944 1619 
1508 2283 2805 2289 3223 207 1949 2794 1053 
1064 4075 1491 2419 1991 4227 146 2785 1914 
2352 4022 209 3672 3224 4101 986 2688 3617 
267 124 121 4079 3791 4212 1047 698 1324 
652 1453 3164 61 1552 3604 1454 3557 3620 
1403 2681 3565 3627 579 2324 2771 3595 4058 
3118 4005 2270 4000 3616 639 725 2012 2693 
2730 3166 870 1037 3258 3598 2760 2323 2264 
595 1472 3554 3686 2315 3998 2750 2302 4068 
1749 1011 1402 2729 2728 974 3547 3183 3125 
1398 3628 3602 196 4063 2316 245 1027 2692 
613 178 1903 1899 740 3728 3937 600 3233 
4036 4037 2757 3185 2266 2754 2470 1891 1320 
107 3197 1918 1085 4002 3215 1888 3591 1915 
1902 3113 1446 2272 147 597 528 2733 524 
4067 2338 1464 2727 4048 4187 1893 2258 3171 
584 971 4045 1536 1858 1971 575 170 2734 
4040 4061 3127 1034 3939 101 3174 1456 593 
3198 1885 543 1459 587 972 4055 3553 1117 
1851 2009 1 2690 182 2701 6 1041 157 
539 1078 903 969 3170 3605 3062 1449 553 
105 592 1917 3935 532 1765 3625 577 3688 
1006 1451 1840 3709 2255 1039 3562 2308 4105 
1417 3168 180 3634 1872 654 629 1437 3245 
2354 3519 2360 1864 1042 2630 192 638 2376 
1521 1995 1940 1948 203 3665 3784 631 3217 
223 965 123 122 4234 4009 4090 1504 2369 
3584 190 2287 3154 3649 4107 4109 1861 3138 
3218 1119 1033 1831 2780 120 1957 987 4013 
125 113 2291 342 2286 3364 2366 644 2481 
1526 3206 1876 943 990 3573 2907 2503 1558 
3231 1825 3219 983 2425 2717 2784 3207 3582 
1935 153 2778 1990 2718 1926 1124 130 4010 
2384 565 1081 636 2802 1498 4216 3587 4139 
3662 995 2740 2712 1525 3954 1123 616 3157 
1943 1958 138 1084 1955 1494 2773 1202 3711 
1427 2792 4018 329 4112 552 3636 2285 2705 
2710 4111 83 1441 1873 2841 3135 2357 1191 
645 3240 2781 2245 214 2296 3656 4086 2671 
1079 139 3238 2371 617 2774 2616 2348 4088 
212 2281 4092 1522 213 564 1002 1954 1434 
3568 94 1490 3660 3143 3708 3156 2386 1489 
3576 2711 778 3142 4215 621 4136 566 1518 
626 4027 2002 1959 998 158 1910 1986 2453 
3731 3413 4282 166 4126 2818 3991 1267 244 
3292 964 4164 1147 2737 3314 275 3162 3564 
3316 3294 310 1110 1174 674 2884 247 2044 
2011 171 2397 2273 3755 2875 1610 700 2013 
1414 729 1981 2814 152 1109 248 1544 3184 
2767 1581 1706 667 3321 3254 367 2810 97 
663 2765 2872 703 3289 2313 4177 3328 4186 
2745 3161 2019 4165 1835 4173 1021 669 2037 
730 2318 1093 4121 3251 2026 2862 1542 702 
3684 4162 4163 104 611 660 3846 2335 1469 
3319 2007 711 1973 2879 3290 1548 4191 3322 
662 3677 1969 2014 2894 3255 2564 1978 1585 
2747 4130 1155 2473 4120 3749 1592 238 2819 
1578 1166 232 719 3597 4166 3754 3687 1602 
3730 3330 4284 3737 240 738 311 734 3732 
4118 274 704 1688 1589 1598 720 2405 707 
1968 2441 4122 1158 2895 733 1979 4194 671 
2739 3989 814 1138 706 534 1591 1600 3165 
299 3744 3695 958 1531 1089 1593 3306 1149 
2459 4167 2404 739 1982 2452 3727 1988 1535 
4182 3318 3253 3326 3310 1599 1590 2433 4160 
111 1146 1168 2435 2440 2886 2735 314 1142 
3845 249 305 3693 2465 2445 2829 1090 2863 
3738 2874 3249 280 736 1170 2390 1173 2990 
3257 3246 732 277 304 1088 1583 1144 3248 
2015 2471 1616 3838 301 3296 3758 1711 3626 
114 2831 3743 580 1156 4185 2877 1107 3295 
1718 2402 824 2859 1641 2394 1458 2891 283 
713 2010 4189 2813 1551 290 715 1975 2472 
337 3265 2860 821 3199 246 1538 3682 1529 
3325 4127 1139 188 3694 279 2367 1848 2881 
2467 3697 1632 2436 2826 2039 231 3232 722 
4176 3750 3260 2868 3117 726 1847 2035 4174 
1901 4129 1617 1135 2407 1143 2487 2883 4287 
3563 2876 1101 4141 3676 1929 3763 4184 2389 
278 2437 2045 723 2024 1586 4132 2890 1608 
3772 1208 1165 2080 2892 4149 2751 1539 3151 
3794 2817 3753 1532 285 668 1604 1094 1463 
1134 1096 236 3176 2878 2866 115 3423 3266 
1478 4032 3379 705 2873 2823 2444 4181 2021 
309 710 2870 4296 298 4113 670 2040 1457 
1141 777 1102 4131 119 3759 3410 1609 255 
3259 2393 1571 3680 4145 2167 4059 680 2449 
300 4218 1974 2854 2089 3451 2914 265 773 
1612 1167 1967 259 999 1159 3798 2413 1136 
789 4205 2088 2834 3795 2903 4138 1126 4161 
3685 1127 3702 691 2939 3278 2479 3336 3256 
4263 582 3707 2900 4203 2934 4044 761 3275 
1092 2149 3999 712 2797 3345 3836 2502 687 
235 2068 689 1563 2474 4230 253 3640 1192 
2060 327 2154 2485 756 2003 2049 4152 1646 
2915 2930 1556 3277 2426 1650 4170 2480 3572 
2917 4225 3351 551 2721 4237 2504 776 684 
765 686 1647 4200 3349 2500 2776 2844 1128 
2420 443 1653 1196 4222 3792 2833 3768 2910 
316 4156 2839 2046 3773 1994 762 681 1931 
354 693 2418 781 2416 1130 1132 3354 4146 
1567 2109 3271 331 1183 4202 3771 4221 3706 
318 2933 2913 2842 2414 1553 1198 1201 1677 
754 1723 1206 679 3274 3806 2423 4224 320 
3823 2935 2428 1212 1289 4325 2856 3362 2070 
3799 744 324 1203 1129 3444 4021 3803 3710 
845 4016 1190 2083 2904 2509 2908 317 270 
764 1620 2062 1631 1645 1215 2067 1649 3366 
339 3698 2796 1575 3279 1568 2494 2932 4236 
3365 1184 690 4019 3804 2513 1114 347 1177 
3283 1185 2284 3358 4151 1998 3346 4144 271 
2926 1199 3769 2431 2510 3796 3786 3701 775 
334 1045 3356 766 141 322 269 2057 4096 
3765 2478 2846 2770 1640 3284 3718 2365 1626 
1560 1628 770 2427 779 355 678 2514 4093 
2078 1860 2928 3779 3580 2906 3369 345 1629 
1952 2843 1209 2053 1120 1559 4155 2853 3361 
1658 1639 1072 3350 3363 3785 692 1992 372 
1564 1121 264 2000 272 3801 2489 624 2927 
771 3150 2912 3272 1635 254 1996 2103 1070 
1648 1176 699 2052 4153 1507 3288 1068 2923 
3700 3152 650 344 226 2484 2346 2488 2568 
755 2361 1200 4226 3828 3267 1083 4233 3764 
2919 1439 4143 1115 3286 2845 4229 4217 849 
3691 759 2806 3281 3360 2455 2850 2777 328 
683 1997 332 1603 303 2498 1625 2882 2382 
2929 3264 2512 343 4158 3601 3252 1588 3746 
386 1465 2896 2824 3600 4119 1972 1481 709 
2442 2871 2022 4188 2432 4180 282 1108 233 
2017 1157 1582 1577 3323 3372 4196 2403 3679 
3353 3244 2954 3262 1007 3721 2018 1855 4175 
708 250 2827 3261 4197 294 2303 2816 3313 
2434 665 2977 784 1099 1546 3740 2034 3293 
3726 2812 3689 1113 1245 1987 2448 1547 1169 
2036 659 1148 2828 2330 291 3742 2689 2867 
3327 2468 3302 1892 3247 3291 3301 1615 286 
289 2456 1106 2743 1530 3312 3304 4125 381 
4117 1605 293 296 1163 2084 2880 2830 3132 
3546 3675 297 3309 243 1596 2821 165 3762 
1983 3751 173 3745 2457 3747 273 1474 3593 
2888 4056 2071 2905 2461 3756 3681 1162 2684 
1133 2454 701 661 2811 1976 2262 2008 3192 
2446 3549 1008 2027 2447 4171 540 2028 1222 
1150 3774 3375 555 1694 2304 727 1485 2991 
1097 2388 3307 164 3683 251 1537 1540 2519 
4183 1534 1161 4159 716 287 3250 2460 3723 
3674 677 1154 1160 1731 3324 2058 2902 1238 
3287 728 3720 2938 2005 672 1654 2043 1205 
2164 1095 1197 2715 3334 1642 3340 2065 1999 
3355 1576 4099 2925 3331 697 2064 3821 1977 
4231 1638 2463 3273 2937 338 257 2508 4228 
3449 325 2079 3348 319 3767 2050 1570 330 
3335 2381 1213 3282 2916 1487 2055 1286 1421 
2865 2798 242 688 2852 2421 4148 1643 1425 
2054 350 1859 3341 3343 760 3655 256 1300 
132 4206 4072 2006 4147 3781 2901 2001 1644 
2066 3226 743 3788 3714 748 323 768 3775 
1621 4213 1214 3243 1566 4318 2918 3352 2051 
2085 1195 3712 1651 2059 2837 1112 3715 2716 
3239 4154 2506 752 1656 1513 2429 4210 2424 
3338 2377 4207 696 1523 2345 3713 4157 774 
2385 2511 3652 3371 4211 1652 2410 1627 3819 
1122 4199 352 1633 4220 742 4137 266 3705 
1193 1503 333 1623 1875 3337 1736 420 326 
4095 3447 2061 4142 258 3019 3359 3664 1655 
3638 3704 4235 763 3332 3276 3342 3436 197 
2595 1562 2076 348 3719 767 2482 1630 2899 
2048 1584 1989 230 1597 2970 2144 1541 2117 
1673 4283 836 3739 2898 1276 1256 2956 2143 
1255 3383 3839 3809 3299 2141 2945 2562 4277 
4179 2950 1703 3409 384 2135 3315 4178 3735 
276 2038 1550 394 1265 2543 1695 2988 2099 
2979 2391 4247 3832 2983 395 1268 1985 2963 
1152 1266 3843 3811 2968 4273 3854 400 2541 
2523 4288 2033 3377 237 1543 3752 368 358 
292 4250 3404 2563 357 831 2552 788 2400 
2094 3856 807 2025 3402 3829 737 364 1218 
4292 2095 1137 407 2138 2942 3748 826 3374 
4275 2145 392 2527 4168 2864 813 411 1172 
1712 387 3382 4299 1671 1533 2561 2974 1226 
2545 4249 3408 1153 1611 2439 2825 2132 398 
3859 3734 3844 724 2133 2521 3381 2524 2142 
1275 3834 4246 1217 2438 1261 2952 3852 3384 
1715 3297 2858 3406 1672 2966 4128 2969 408 
1145 363 3860 2121 234 1707 4240 3813 3376 
2137 822 1668 2951 4281 833 4244 3833 816 
4302 1689 2130 2987 1580 825 406 2975 2140 
3736 1662 390 827 2469 3831 1278 3851 2443 
1970 4297 790 1227 3858 782 2136 717 3847 
1669 666 1700 1665 2518 3018 1270 2943 356 
2946 1699 3840 3417 1664 3807 785 1984 3427 
1225 252 2941 3415 2982 3853 1708 3812 359 
399 3416 2820 391 2096 361 835 1098 2030 
2129 809 2515 2978 1613 2893 393 2399 1698 
2517 806 1091 1164 1702 1251 4285 1260 3741 
2986 1545 1228 4289 657 4298 307 4312 2557 
820 3425 2526 3724 1264 4280 3421 828 369 
2097 4243 4261 2985 3418 1713 4328 2869 1151 
2450 3881 2032 403 397 1249 664 2981 1283 
658 404 780 4242 1254 3320 1229 2124 3848 
1250 396 3407 795 2949 4193 3003 1221 796 
2016 1246 2989 854 2114 4114 385 840 1709 
2100 1303 2953 438 3373 2565 3303 2944 2971 
2115 1252 4278 2126 4279 786 1224 812 2537 
3380 832 1272 2984 4269 1104 360 2536 2412 
3395 2152 2157 1587 1614 4308 3458 4286 2992 
2958 1704 2104 4238 3815 2107 3884 341 4309 
440 802 1555 1666 1678 819 797 792 2165 
2931 3443 4317 3766 3699 2964 2087 866 1240 
4271 3789 864 2169 1686 2911 1622 2994 413 
1204 2532 3874 808 4219 859 2533 3419 4320 
431 848 1561 435 850 2921 4310 2530 1683 
3454 261 1241 1569 1216 2538 1725 1293 2160 
1732 4321 3885 370 3016 4259 377 380 2579 
383 3800 3386 2101 4306 3437 4316 419 793 
262 3008 427 2491 373 2998 1290 1674 2499 
422 3866 335 1207 1187 1679 1738 4332 2534 
2162 2490 2004 758 860 1680 3814 2430 1180 
3770 4305 4256 3393 853 3446 1722 263 3824 
2108 3440 4313 3015 1743 1748 801 2148 2495 
434 3009 436 3396 682 2496 2105 1719 416 
1178 1297 379 3438 1285 1287 2959 2417 3020 
2422 846 2113 2111 747 421 2590 1118 2924 
415 2580 3826 1247 2146 2569 750 2535 260 
3887 3435 685 2592 382 4208 1733 1636 3780 
1624 439 3017 376 2999 746 4266 2486 2960 
371 852 753 4303 2589 4260 2576 414 2163 
3868 1306 425 417 4209 4329 3782 2575 1239 
1302 1116 3878 1186 2072 2594 3442 1111 3816 
856 803 841 2411 3007 3870 1737 2166 3876 
1721 4262 844 2155 2147 2477 3434 3010 2153 
1735 1729 800 2475 2567 3269 1730 1728 1727 
3367 2529 418 3456 2159 2581 3004 1284 3886 
2171 441 378 3390 2591 1682 3879 3450 3391 
2170 426 2993 2081 1232 3863 2997 4239 3397 
1676 3888 798 3883 1280 1726 3777 3817 3430 
3006 1744 3431 1734 2955 2156 3012 851 2566 
1230 3357 1292 2158 1235 2075 2909 2574 3797 
336 3445 2522 3455 1685 1993 3388 2848 4270 
804 3452 1296 1301 1259 1661 1660 2123 1717 
401 4253 1269 3725 2857 4135 2122 3424 834 
2409 815 718 4133 375 4254 4274 2406 2047 
783 2029 2948 1667 2947 3842 4245 2897 1219 
3422 2972 2128 3850 1696 810 1171 3849 2392 
2031 1980 2539 3378 1277 4116 3412 3403 1271 
4276 2548 3873 3855 3841 791 2542 3678 388 
829 830 1140 2544 673 3426 1220 2556 2553 
811 2401 2134 1697 3305 1705 4251 2540 1710 
2550 1257 1606 3810 2125 4293 842 2547 4255 
2093 4134 1720 1253 241 302 1691 288 3757 
2973 389 1258 313 1594 3400 1716 3399 1670 
3420 2967 2531 787 2887 1714 2116 2127 1693 
3837 1262 1690 2131 284 1601 1248 2118 2091 
410 4241 1105 2520 2092 2546 409 4124 1175 
3405 3857 3428 1549 1701 2965 3311 3835 1692 
1607 2558 2996 2120 1663 4294 3805 3329 2815 
2090 2885 3722 3808 2940 402 3865 3368 2559 
2832 721 405 838 1223 4195 2980 1243 4301 
412 2560 4291 1263 362 3347 4295 1739 4324 
2920 349 2098 1684 3875 3385 3441 365 2175 
2549 823 3268 837 676 2395 1657 4123 817 
2119 4290 2139 4272 3344 3414 741 867 1681 
4307 2168 2587 1274 1305 2483 3432 3864 2151 
1742 2458 1741 1557 1295 3394 3021 2836 2572 