# vtk DataFile Version 4.0
Generated by LIGGGHTS
ASCII
DATASET POLYDATA
POINTS 4292 float
-0.140729 0.00484628 -0.244117 -0.244633 0.00495266 -0.244979 -0.226112 0.00574508 -0.244966 
-0.21504 0.00499607 -0.244939 -0.235561 0.0114747 -0.244624 -0.205082 0.0093929 -0.244899 
-0.180689 0.00705862 -0.244671 -0.17014 0.0119333 -0.244983 -0.160056 0.00859924 -0.244953 
-0.149857 0.00880179 -0.245017 -0.200515 0.00516939 -0.236403 -0.174368 0.00493203 -0.236285 
-0.220404 0.0114376 -0.236505 -0.144449 0.0116307 -0.236809 -0.163895 0.00490327 -0.236145 
-0.1483 0.004751 -0.230559 -0.184939 0.00514712 -0.233559 -0.243298 0.00597162 -0.234685 
-0.208506 0.0141205 -0.236457 -0.167848 0.0130711 -0.231011 -0.239196 0.00518097 -0.224643 
-0.200785 0.00488578 -0.224295 -0.178848 0.00515745 -0.22495 -0.168886 0.00478446 -0.225597 
-0.158079 0.00489837 -0.227893 -0.229671 0.00891253 -0.225163 -0.219417 0.00866537 -0.226875 
-0.192768 0.00986013 -0.227591 -0.235657 0.0147941 -0.0331437 -0.189394 0.00475405 -0.217996 
-0.136561 0.00517937 -0.220712 -0.241441 0.0131273 -0.219086 -0.213554 0.0137 -0.220441 
-0.184825 0.0134408 -0.219729 -0.17284 0.0119667 -0.217446 -0.143721 0.0119903 -0.221784 
-0.245006 0.00502284 -0.214452 -0.228839 0.00493828 -0.216032 -0.197127 0.00743186 -0.212277 
-0.148969 0.00483353 -0.217076 -0.218906 0.00881949 -0.213055 -0.162098 0.00782165 -0.212448 
-0.236452 0.00536176 -0.209217 -0.171588 0.00618073 -0.207589 -0.151691 0.00696544 -0.207693 
-0.140662 0.00743487 -0.211888 -0.130884 0.00550911 -0.210201 -0.244999 0.0141556 -0.207581 
-0.206811 0.00936156 -0.207903 -0.180665 0.0103118 -0.210521 -0.244963 0.0054582 -0.20157 
-0.140655 0.00604865 -0.20114 -0.218584 0.00718173 -0.203038 -0.179442 0.00701129 -0.200045 
-0.160857 0.00488984 -0.202147 -0.228095 0.00938243 -0.20523 -0.198698 0.00974663 -0.201682 
-0.189171 0.0113186 -0.205082 -0.244974 0.0148038 -0.228985 -0.234696 0.00480045 -0.199262 
-0.131187 0.00577157 -0.197981 -0.207487 0.0047564 -0.199096 -0.168722 0.0057144 -0.19345 
-0.150305 0.00546739 -0.197868 -0.227206 0.0104238 -0.194784 -0.134934 0.0134396 -0.0827909 
-0.159001 0.0108975 -0.194231 -0.138044 0.0126418 -0.193064 -0.24106 0.00489251 -0.191537 
-0.177952 0.00575096 -0.188058 -0.153674 0.00490441 -0.18828 -0.143861 0.00504343 -0.190115 
-0.245 0.0139446 -0.19329 -0.13335 0.0050567 -0.187661 -0.244753 0.00905298 -0.183228 
-0.223863 0.00486361 -0.185329 -0.199957 0.00554457 -0.184062 -0.164204 0.00485598 -0.182373 
-0.231099 0.0115134 -0.18338 -0.209902 0.00653159 -0.188415 -0.18647 0.0095542 -0.18415 
-0.18087 0.0140931 -0.0161031 -0.15264 0.00485303 -0.178355 -0.142811 0.00546817 -0.180114 
-0.216629 0.0108773 -0.180912 -0.195299 0.0120489 -0.17694 -0.178722 0.00803828 -0.174733 
-0.171473 0.0124588 -0.180024 -0.244985 0.00556645 -0.172986 -0.133841 0.00546648 -0.174787 
-0.224806 0.00729208 -0.174655 -0.215163 0.00510753 -0.172614 -0.205153 0.00479008 -0.172827 
-0.192283 0.00527239 -0.170019 -0.184675 0.013754 -0.10261 -0.140883 0.0128691 -0.171932 
-0.245003 0.0049278 -0.162859 -0.142317 0.00552991 -0.164466 -0.233723 0.00557374 -0.166053 
-0.203095 0.00540965 -0.163042 -0.154296 0.00723174 -0.168496 -0.22173 0.00869551 -0.165262 
-0.182033 0.0111901 -0.164117 -0.170669 0.0129811 -0.164478 -0.213039 0.00470907 -0.162446 
-0.134087 0.0101376 -0.157976 -0.160857 0.0122323 -0.162638 -0.236675 0.00537672 -0.155605 
-0.142808 0.00506802 -0.15373 -0.244878 0.0117061 -0.155494 -0.226909 0.0048672 -0.157634 
-0.199797 0.00503671 -0.150724 -0.219383 0.0109433 -0.155155 -0.202535 0.0136099 -0.155027 
-0.185388 0.0110221 -0.152133 -0.169979 0.0146452 -0.154452 -0.244864 0.0134257 -0.0665176 
-0.150485 0.0116832 -0.152868 -0.224111 0.00538458 -0.147847 -0.244786 0.00507236 -0.146415 
-0.211545 0.00761169 -0.149951 -0.130768 0.00507441 -0.149811 -0.158317 0.0140669 -0.205111 
-0.139413 0.0134349 -0.149131 -0.20684 0.00487866 -0.141601 -0.185206 0.00548988 -0.142366 
-0.156579 0.00728065 -0.14524 -0.144347 0.0050309 -0.141838 -0.235896 0.0117425 -0.141296 
-0.192031 0.0130569 -0.14462 -0.133649 0.0106113 -0.141145 -0.196431 0.00535474 -0.139334 
-0.243955 0.00715021 -0.136518 -0.228243 0.0137516 -0.13516 -0.219094 0.0101974 -0.136967 
-0.210098 0.0140306 -0.139048 -0.188682 0.0136616 -0.135215 -0.172019 0.0113685 -0.133511 
-0.162821 0.00873625 -0.136721 -0.152811 0.00836976 -0.136003 -0.21108 0.00487492 -0.130854 
-0.191427 0.00510136 -0.130488 -0.134272 0.00592626 -0.131729 -0.244974 0.0116751 -0.127423 
-0.202928 0.0130847 -0.132125 -0.143878 0.0111397 -0.132265 -0.201517 0.00489726 -0.126464 
-0.226901 0.00562571 -0.128523 -0.139283 0.0116051 -0.123342 -0.178253 0.00876321 -0.000803405 
-0.195071 0.0131855 -0.125931 -0.177847 0.013533 -0.125458 -0.166715 0.0114718 -0.124966 
-0.156867 0.00987336 -0.123598 -0.203778 0.00535082 -0.115348 -0.146883 0.00530544 -0.121594 
-0.133885 0.00526849 -0.117436 -0.244754 0.00476292 -0.11971 -0.19302 0.00500082 -0.120544 
-0.181451 0.00718273 -0.118366 -0.170538 0.00712262 -0.116331 -0.227187 0.0134668 -0.119371 
-0.208226 0.0116761 -0.122191 -0.197091 0.0130686 -0.115914 -0.149194 0.0141036 -0.115543 
-0.226989 0.00518908 -0.109352 -0.188098 0.00536698 -0.109896 -0.160736 0.00796074 -0.114488 
-0.235454 0.00548513 -0.114997 -0.218126 0.00959023 -0.111029 -0.20828 0.0109137 -0.108234 
-0.177182 0.01051 -0.109228 -0.133855 0.0133893 -0.111258 -0.197678 0.00496107 -0.10683 
-0.154428 0.00491264 -0.107324 -0.137949 0.00479073 -0.108227 -0.244928 0.00550237 -0.109602 
-0.233716 0.0142852 -0.104742 -0.194062 0.0143677 -0.10631 -0.166991 0.0088772 -0.106438 
-0.155215 0.0149663 -0.107028 -0.14348 0.0131587 -0.103131 -0.244779 0.00534193 -0.0978474 
-0.227225 0.00600782 -0.0976637 -0.218161 0.00518973 -0.101859 -0.190859 0.00490544 -0.099476 
-0.179199 0.00476526 -0.0988911 -0.157136 0.00881981 -0.0982458 -0.212251 0.0130205 -0.0992917 
-0.199912 0.0106428 -0.0983697 -0.207695 0.00548734 -0.0945825 -0.236073 0.00646302 -0.0928759 
-0.19577 0.00490682 -0.0907722 -0.244901 0.0119182 -0.0903495 -0.185528 0.00718209 -0.0911722 
-0.166919 0.00771355 -0.096369 -0.166166 0.014576 -0.00351419 -0.13469 0.00647392 -0.0947894 
-0.224949 0.00528546 -0.0878308 -0.139235 0.00502432 -0.086038 -0.215534 0.00874394 -0.0888229 
-0.205978 0.00478486 -0.084783 -0.168287 0.00489058 -0.0868517 -0.159215 0.0109994 -0.0883142 
-0.244897 0.0048385 -0.0832138 -0.235808 0.00747039 -0.079064 -0.213683 0.00477113 -0.078023 
-0.194714 0.00641542 -0.0809588 -0.244403 0.0129514 -0.07729 -0.221692 0.0130083 -0.0818679 
-0.150893 0.010388 -0.0828256 -0.244982 0.00481995 -0.0715204 -0.204121 0.00483253 -0.0735646 
-0.169987 0.00749711 -0.0773793 -0.245008 0.0133654 -0.0562825 -0.194498 0.0122895 -0.0728992 
-0.182702 0.0111773 -0.0784865 -0.160585 0.011244 -0.0783702 -0.14333 0.0114092 -0.0763945 
-0.187385 0.00817483 -0.0665574 -0.165663 0.00722947 -0.068367 -0.228204 0.00962039 -0.0676051 
-0.218669 0.0123735 -0.0690445 -0.177236 0.0112611 -0.0701059 -0.244932 0.00479446 -0.0614104 
-0.133452 0.00604362 -0.0645835 -0.236078 0.00970818 -0.0613194 -0.210387 0.0116405 -0.0627069 
-0.200485 0.0100768 -0.065241 -0.154864 0.00944572 -0.0643518 -0.14604 0.0136914 -0.0670473 
-0.221101 0.00625164 -0.058854 -0.204876 0.00479463 -0.0580051 -0.162929 0.00724899 -0.0580909 
-0.138629 0.00673275 -0.0556508 -0.134197 0.0132745 -0.0728353 -0.176783 0.00950498 -0.0583833 
-0.152197 0.0132666 -0.0555042 -0.130512 0.0130898 -0.0559479 -0.244649 0.00499699 -0.0505837 
-0.234871 0.00494238 -0.0525895 -0.226346 0.00511431 -0.0473981 -0.215342 0.00518822 -0.0495507 
-0.219198 0.0144878 -0.0490105 -0.205268 0.0117131 -0.0507789 -0.162169 0.00486499 -0.0451725 
-0.144794 0.00477642 -0.0429651 -0.236139 0.00996816 -0.0437061 -0.209102 0.00806411 -0.0423153 
-0.193299 0.00972793 -0.0470443 -0.175954 0.00919772 -0.0469547 -0.135636 0.0108348 -0.0456925 
-0.243928 0.00488485 -0.0398906 -0.22857 0.00652112 -0.0378046 -0.218745 0.0064887 -0.0396527 
-0.199446 0.0076911 -0.0389312 -0.177526 0.00495618 -0.038095 -0.167134 0.00490993 -0.0362174 
-0.153074 0.0128803 -0.0379823 -0.222188 0.0124864 -0.0321801 -0.212837 0.00980404 -0.0299375 
-0.183845 0.0131008 -0.0344332 -0.171745 0.0136849 -0.0357633 -0.14319 0.0107685 -0.035187 
-0.245027 0.00473152 -0.0299534 -0.236393 0.00783204 -0.0260726 -0.227114 0.00478844 -0.0281 
-0.194468 0.00707943 -0.0295744 -0.174231 0.00492672 -0.0286925 -0.161093 0.00529542 -0.0282969 
-0.186292 0.0130296 -0.0246427 -0.145061 0.0114407 -0.00360306 -0.135939 0.0141692 -0.029271 
-0.211788 0.00484481 -0.0199839 -0.202654 0.00471705 -0.0243108 -0.180478 0.0048042 -0.0198158 
-0.134135 0.00550998 -0.0200962 -0.245027 0.0116343 -0.0227932 -0.220205 0.00958986 -0.0226272 
-0.172626 0.0127163 -0.0225529 -0.159747 0.00990558 -0.0193193 -0.201898 0.00550228 -0.0141456 
-0.193202 0.00824704 -0.0188834 -0.141369 0.00695766 -0.0128616 -0.236578 0.013122 -0.0162967 
-0.135196 0.0109641 -0.0054729 -0.23597 0.00747507 -0.00796006 -0.181097 0.00535311 -0.00985872 
-0.163727 0.00545915 -0.0108924 -0.150898 0.00487089 -0.0107466 -0.227285 0.0110751 -0.0115554 
-0.216463 0.0118145 -0.0100066 -0.20652 0.0140901 -0.0109176 -0.190844 0.0110636 -0.00939023 
-0.172781 0.0110645 -0.0101713 -0.210183 0.00561264 -0.00540325 -0.187928 0.005069 -0.0019005 
-0.168854 0.00488131 -0.0023231 -0.244535 0.0117162 -0.00296138 -0.220426 0.0118274 -0.000583008 
-0.207937 0.014479 -0.000730869 -0.233317 0.0141356 -0.212862 -0.21812 0.0133281 -0.19066 
-0.155722 0.0145687 -0.185038 -0.201861 0.0138451 -0.0856121 -0.178871 0.0136428 -0.087399 
-0.180216 0.0135047 -0.236182 -0.163524 0.0137654 -0.221496 -0.21168 0.014189 -0.199929 
-0.149695 0.0142201 -0.176417 -0.218005 0.0148535 -0.14574 -0.201976 0.0141655 -0.145074 
-0.193683 0.0138879 -0.244655 -0.158652 0.0134114 -0.23591 -0.150824 0.0141533 -0.22845 
-0.165938 0.0146391 -0.188074 -0.203097 0.0138486 -0.0281471 -0.232952 0.0143997 -0.232908 
[...]
POINT_DATA 4292
FIELD FieldData 3
id 1 4292 int
2693 1786 1313 2178 480 3489 917 3483 3891 
1792 487 1366 14 3543 474 2271 453 5 
920 99 1354 2217 475 1325 464 3053 3927 
3950 34 3922 3494 3502 1783 2601 3460 2681 
54 922 3898 538 1364 2606 897 3077 3946 
2216 1353 1774 451 1363 1341 7 3055 486 
477 445 1757 3461 1779 1761 489 3484 2607 
1778 1752 3186 2214 1413 2628 925 492 3895 
3038 3624 1797 1350 3492 918 907 3902 1420 
3508 1782 4060 3037 2632 466 3490 3495 531 
1312 2634 47 53 913 1467 2177 1320 3465 
3074 597 16 3511 3471 40 3171 2197 2625 
612 876 2623 1338 3486 1793 3925 2198 467 
1846 1310 63 36 1012 2325 3462 3061 1775 
2631 3059 1762 2212 4047 2207 46 1801 910 
1796 2220 3893 1884 1756 881 1781 1418 3469 
1345 614 909 2644 576 29 3049 904 3472 
590 37 2641 2764 3076 3896 3057 2629 3938 
3941 2185 488 1759 1798 1349 898 3923 2208 
49 1788 1346 2636 3163 1355 3071 602 58 
10 960 2200 1342 2646 3482 2180 3196 2639 
3900 3 3943 1406 9 3026 2184 2299 2648 
1316 2328 872 3944 905 868 1361 1352 1753 
1362 1309 3028 3079 2211 1795 3115 42 1787 
2698 1852 1844 3932 1314 1785 2599 2755 473 
3608 2598 1758 900 1005 2694 11 479 3611 
3062 2699 1784 3607 1006 3463 1343 3050 3994 
476 52 1905 599 2600 1360 2199 2326 2306 
3032 3940 1311 3935 873 3069 2223 3899 490 
2756 3468 3058 874 1347 2181 3905 1765 1473 
55 1889 2213 3951 51 510 4069 2635 1375 
3934 3033 2605 485 198 470 2321 1351 44 
169 4049 3054 889 3506 22 3064 3104 50 
218 2205 3467 60 879 1777 586 1898 35 
2210 3056 919 3068 3926 2622 3066 1749 482 
2624 41 2215 59 3459 2643 2640 3500 38 
1318 2189 2664 77 3919 209 2659 1776 953 
67 916 885 2690 3108 4025 883 4087 3958 
2204 1836 625 2650 74 4026 1396 653 3949 
878 3897 3202 1328 2655 1359 92 3229 1085 
519 2236 17 81 3236 2287 952 4094 4076 
4009 2617 3963 3477 498 1811 4103 3044 3635 
3233 890 2669 2804 3643 882 3145 1069 33 
449 3965 892 2249 3971 4104 64 2238 2203 
933 1823 2288 1394 3537 2235 2225 4082 1813 
3512 3040 3541 1819 3141 136 3041 3094 3480 
1822 2379 1427 86 1820 1332 3570 3571 1943 
2661 948 3095 1501 1833 80 3975 3910 3517 
499 3666 930 3099 886 3228 2663 1424 3527 
4106 548 3979 1388 496 26 1763 559 2233 
2672 4089 3101 3969 93 461 2791 2356 3203 
2654 1381 947 4017 84 643 21 2363 501 
3110 91 3914 4024 3144 1807 1373 3907 2244 
18 509 1828 1376 1826 2615 3474 3529 2242 
2241 463 515 1063 27 2619 1771 495 20 
944 3534 1963 1334 3916 2665 1808 514 4091 
3153 3039 3981 1378 937 1336 1383 3522 2191 
1385 3962 3102 1377 3475 3083 2651 78 2768 
3533 2676 2188 929 2671 518 3043 2237 216 
3478 2186 3082 3960 2769 1830 2666 3972 3103 
2610 895 500 2193 3098 1390 1423 1815 32 
3952 893 2190 1821 1817 3046 1764 25 1768 
95 1327 1391 1959 3957 2231 1386 2612 894 
949 1773 76 2674 1395 1335 3967 3097 3540 
1769 3045 2618 1816 939 3920 1518 2614 2243 
3959 3090 522 1369 1930 3970 506 1766 2228 
3964 507 934 193 992 517 2247 3976 457 
3915 3516 4097 2675 94 2187 3953 945 1329 
1062 3528 1772 932 3107 2668 2246 85 4111 
28 90 1810 75 1392 2616 3476 1387 3092 
2608 3538 927 1368 887 3980 71 2252 1499 
1934 72 523 567 2657 1374 956 3063 2183 
469 3187 2638 870 2209 4004 1365 2630 181 
8 3592 3034 3933 3065 484 3024 3982 2201 
1755 3924 3598 2597 1401 3930 912 1834 1319 
1317 3025 3029 2176 901 1337 1794 1323 1802 
3487 2182 2256 1443 13 3052 880 89 3070 
1915 3509 871 444 3464 3466 2195 3473 2627 
2649 1800 2202 911 491 471 1837 62 3189 
1044 481 39 2221 1789 1322 3035 2353 869 
1339 3545 96 2218 3937 144 3027 926 4034 
465 448 2222 877 3931 3894 1751 906 1411 
970 3504 3945 1416 3067 2314 450 1799 3609 
3485 1838 1791 468 1358 546 1357 1 2602 
899 3498 1315 45 591 3078 1371 2626 921 
3060 2342 483 3558 3939 915 3630 1408 1356 
1849 3470 2647 1924 2620 446 2621 3947 3903 
1019 924 15 176 3120 3116 1479 3036 3992 
3544 478 2642 2604 3503 452 1904 2196 3904 
3112 2753 2206 2219 1348 3491 961 3510 3182 
594 3892 493 3928 3929 4 3030 1340 3493 
2645 902 3497 1321 1856 142 1895 1397 516 
3047 504 3542 2 3521 2179 206 935 3031 
3213 2637 1393 2239 3532 3918 2224 634 505 
951 3105 1876 2652 938 3525 511 923 3513 
3968 1367 215 211 3973 3520 3086 43 2653 
1053 1054 3081 2667 931 2250 3917 4080 1827 
1767 2662 2611 1060 943 3936 2656 512 70 
2670 3530 896 3093 941 4083 936 1330 3518 
2374 2251 3955 2253 1511 3642 950 3479 3088 
66 2679 3954 1862 3106 1814 1831 888 459 
462 1809 1389 2713 984 2708 3524 224 1331 
1384 3515 549 520 628 1333 1061 3539 1829 
3087 1370 3526 1805 513 2677 217 3912 2248 
1812 1059 3578 2230 1382 126 4074 494 990 
23 79 3048 3109 2240 3111 88 2229 3531 
3080 3100 456 2254 508 3523 1770 521 3536 
2234 2226 2678 954 458 24 2673 3921 3911 
1372 2613 2192 69 3089 1326 1874 3966 3906 
1825 497 884 3084 2232 3535 1806 1824 460 
2633 2660 503 2609 891 3085 3961 199 3569 
19 942 68 3091 3230 940 30 3978 2658 
87 2227 3599 4033 1455 1461 2759 48 1803 
3126 2317 166 3622 3564 3133 1841 1003 1907 
1882 1885 3631 2316 12 155 1023 1854 171 
2683 1414 149 3627 61 2329 3600 978 2042 
1344 2750 1028 3164 102 1032 1750 1486 1447 
1403 1842 2324 1040 1448 3184 2728 2403 3075 
1011 1410 601 160 3988 574 1020 3547 4058 
1839 3190 1016 3180 3119 2270 3554 103 3556 
3550 1402 3178 1892 112 2303 454 2331 1037 
1845 174 3022 1903 3761 1919 2603 1015 3560 
1445 2311 3610 117 106 1592 2736 2264 179 
596 604 2697 2738 447 1412 1468 3616 4065 
1899 111 3174 535 4068 1460 1887 2733 4036 
2301 4187 600 973 4030 4000 1890 598 2687 
2312 962 583 3546 183 4037 528 3728 578 
4031 2265 959 2757 588 4067 3987 3197 2749 
572 156 1536 1483 3113 3129 4003 2761 3165 
971 2305 545 957 1971 161 4054 4171 524 
177 1902 1014 1988 2691 2307 109 3201 1456 
3997 165 163 1891 3134 2320 575 3591 1888 
3615 527 3169 4043 2274 2269 2387 3199 3606 
4061 105 1760 4052 1041 595 2746 116 530 
3121 1976 1024 2339 2696 2695 2726 3948 3122 
1034 2332 1482 2684 544 108 115 3555 1883 
3628 3183 3198 539 1022 1459 170 2341 1478 
1029 1010 4038 547 1036 580 4048 308 2748 
1843 154 4198 2741 2861 875 3603 1893 3985 
162 1018 966 533 1913 4045 159 4062 2260 
1004 98 1039 976 1900 1450 3605 3170 903 
1485 969 3562 1840 3590 3995 3549 3561 3625 
3618 1043 1637 2257 577 1444 1853 3193 652 
2276 1923 3553 110 2255 3595 3559 2334 3629 
1857 3594 157 1058 2268 1399 1419 2758 184 
1454 2351 542 2922 472 3665 2702 2009 3688 
3565 1400 3168 585 541 1451 1948 2470 4029 
4007 2727 1471 2322 146 188 3191 113 2343 
3185 57 346 151 2740 963 4063 1042 3993 
1914 1407 975 182 1521 1916 3192 4057 1038 
1754 3496 2752 3167 979 584 3181 2686 3246 
2267 2277 2464 1453 968 3593 2692 2319 1937 
82 2688 2266 1188 2354 1911 2771 118 257 
2709 2507 3671 4110 4035 1440 2706 1865 1512 
654 3146 1428 220 1048 3158 3194 122 1457 
1025 4071 1950 1878 2278 4108 2742 4077 1379 
190 100 1080 1659 1938 129 4014 194 192 
3650 1194 980 982 4079 3645 630 2704 2792 
185 641 1528 4109 635 3138 1944 3791 2503 
2194 1074 3222 2786 3137 4073 2364 983 3573 
153 3235 655 4090 2425 2290 646 2723 3206 
3217 2298 1951 3218 213 3574 620 4020 3221 
1957 1990 3148 123 3208 757 315 2352 1084 
3673 3649 558 2376 2798 3587 3668 1526 3242 
1057 1067 125 1497 3646 1500 3716 2783 187 
1426 2369 616 1441 565 3207 124 2300 1558 
205 2703 1873 210 1966 1505 4010 3241 632 
2776 570 135 987 3637 3589 2806 2415 2362 
3773 561 1431 1935 551 3585 557 3223 221 
2777 1087 3656 1941 2773 4081 3653 679 1859 
993 651 1861 1438 2283 1429 208 1928 629 
3224 997 563 321 139 981 1000 1494 633 
2384 2345 3644 140 1064 2720 2710 647 3662 
2358 4072 1879 2297 617 568 2373 1380 1932 
2785 1065 4084 202 2719 1880 994 3588 3977 
1962 4092 564 3214 3234 3660 191 3139 2347 
2284 1055 3481 4012 619 1086 1515 1520 219 
1436 1954 3575 2357 3576 2805 1965 4088 3568 
2774 189 2245 4085 1514 1002 2801 2712 1498 
1066 1001 2778 2279 3648 2285 1073 1077 1490 
2809 3586 1508 1434 1953 3136 1927 3143 644 
1496 1433 1527 227 556 2371 1997 2707 1079 
225 2386 4107 3670 207 1211 2370 143 1958 
197 985 1071 3909 4102 615 138 1870 1960 
3632 131 1056 3156 631 3658 4100 2794 3225 
1877 1956 3634 1489 1949 1049 132 1869 3204 
2795 2501 3633 998 137 3582 554 3667 1491 
649 1493 2711 4023 562 1516 955 2714 2779 
3651 212 4075 2349 3577 3566 1191 3659 1422 
4027 31 134 1872 986 4153 1076 3647 2705 
1488 201 3232 1926 2716 1510 229 1432 638 
4095 1522 4105 1442 2790 2383 996 2717 3657 
3669 560 627 2782 1946 1955 1925 3636 1492 
2336 4006 1964 1026 3620 1894 525 3179 158 
3552 589 3991 1476 3162 145 4064 1465 529 
2754 3557 150 2767 526 2760 2273 4115 967 
1477 2333 2315 4005 2323 1922 3161 2743 3617 
3942 152 1009 3619 3604 977 2739 1452 607 
608 1324 2340 1921 3596 2408 2762 2302 295 
1035 3551 274 4001 1027 3983 573 2730 3173 
553 1896 2729 178 3125 2744 606 2337 3654 
2462 2327 4041 3998 172 4039 107 2259 4066 
3166 1918 3623 2338 579 581 4002 537 2394 
1464 4040 1462 1867 1897 1579 4053 3996 2700 
1163 639 2309 3175 3612 1886 3621 3205 1484 
1030 3127 4050 958 2263 3209 1480 2275 3984 
2040 1446 2272 180 3131 1466 167 2803 3200 
3177 1850 1463 603 1847 1920 540 3160 1858 
101 3172 1398 3692 636 3124 908 3548 4172 
168 1017 1901 147 2725 2732 4055 587 3614 
222 3613 1430 3130 543 3159 1855 2258 972 
1851 1848 593 2261 4046 3195 3128 1906 114 
2308 532 1417 1117 2682 2701 592 3265 2766 
1405 4051 1917 1013 2763 1100 2310 1415 1472 
613 745 2822 1495 3990 1912 4059 609 3690 
2731 1908 1031 965 6 175 2344 914 3051 
186 1409 3760 623 4042 1513 2295 1931 2367 
2056 1790 1470 1475 4008 2372 648 640 2780 
1517 3188 3567 3147 195 2294 120 1033 3908 
1052 2368 3215 3212 1947 3220 4212 4230 1078 
2718 3913 3672 1131 4011 2784 3584 1437 1565 
196 1506 1881 130 2793 228 3154 2802 2366 
3231 2286 2282 552 3639 2348 2280 621 1868 
3663 1509 4018 4013 3579 3227 618 4078 3237 
1081 3140 3216 2291 3219 1804 1936 2721 1573 
2292 127 3641 3149 2916 2724 200 2807 4028 
1123 1502 2293 3096 1945 455 4098 3364 3157 
1863 1046 3661 569 3655 2355 1942 4112 2505 
83 642 991 2296 502 637 2378 928 4021 
3581 1196 2722 571 2799 4096 2359 121 1051 
1047 2789 1523 2361 141 214 3583 656 3142 
1075 946 204 1933 3240 1866 988 3708 65 
1072 1875 2800 2772 2350 1435 645 550 1045 
1504 1832 751 3956 2385 3238 1871 3155 3211 
3778 3243 1961 626 1524 4093 1070 203 2808 
128 1082 3519 566 1487 1449 4015 2781 3135 
285 3755 233 2011 252 964 3316 2453 1981 
2442 310 4192 3294 710 4186 1835 1109 2872 
3252 610 1469 705 1093 282 1588 1989 2012 
1147 275 1103 277 3601 1581 668 735 245 
247 2044 3986 3846 2827 536 1021 729 3689 
2397 3261 703 3118 2824 1169 2814 667 714 
2019 2448 2887 2539 2680 730 4158 1148 3262 
3291 1610 1007 4188 3314 4173 3251 4190 2818 
2812 2819 4197 2033 3290 1986 1140 534 663 
1542 2866 3323 4125 2816 2014 298 731 3304 
2434 2400 3989 660 3687 2564 4120 1972 3721 
670 1110 4165 3679 2894 739 1099 1531 665 
1138 1585 4189 662 2859 3328 3762 4116 2034 
1982 3293 2468 2405 4130 2451 1530 2873 4122 
1595 4117 3726 3315 297 2821 2026 2015 289 
232 240 4194 3263 719 2456 3697 1598 3312 
675 4169 3742 2829 3313 4168 1158 2459 291 
3257 4167 3757 3327 2735 1149 3330 1599 1593 
1107 238 2446 1591 4191 1613 280 3301 1162 
706 2452 4181 4182 2895 1909 3310 2465 305 
3751 2443 734 3754 3745 3743 740 3744 733 
1458 1146 1088 3309 1578 732 273 3752 3747 
293 3306 2407 239 3683 3694 1615 4118 1535 
3681 309 2440 716 727 3693 1583 1590 2813 
2330 246 3295 661 2028 304 148 3758 1008 
1586 1975 4183 314 2886 2021 2262 2737 2460 
2433 2874 1983 1551 283 1096 4159 1105 1173 
2815 726 3682 2388 4184 3311 104 1157 677 
736 1145 3296 3307 2876 2023 2027 1984 307 
3250 1154 2447 2469 1143 2860 3325 2018 3733 
3329 2889 3248 164 672 1161 3114 251 4176 
1970 1090 1144 3722 1165 4127 3691 1607 1098 
2031 119 2831 2883 2041 2890 3260 3258 1156 
2444 1534 294 4119 2045 3763 2891 1141 1977 
3723 4296 2008 3324 250 1539 296 337 2892 
728 2022 2402 1617 300 2035 4126 1101 236 
3753 2897 2043 3281 2449 3680 2039 3256 2817 
278 1612 1657 715 1654 1929 3774 680 1603 
2389 2024 1995 2046 1167 2393 338 3273 2335 
738 4121 2828 1170 2877 2436 2020 4166 1089 
3340 713 231 709 1546 3740 2025 659 2878 
2304 3413 3336 1197 2064 3351 223 1102 4131 
2854 999 2065 2413 3333 1208 2079 2504 2054 
2382 1136 582 1179 1092 3282 2905 3999 691 
4170 2087 2855 1991 3287 2900 4231 1647 1619 
259 2419 3702 773 2049 3278 2832 319 2914 
1113 332 2360 4149 1205 2479 4228 4152 2852 
267 2882 2903 3707 1643 3640 255 2502 1864 
253 1119 1213 3795 1644 2838 687 3280 765 
3275 2060 1563 325 1556 2426 1561 3797 4147 
2281 3784 2939 3353 4148 4138 1068 1642 4234 
342 686 776 339 3352 3770 1195 4216 2154 
689 327 2001 2839 3703 695 323 261 756 
2901 2491 3775 681 3349 4213 2933 1128 2899 
1425 1124 2497 1199 697 1207 3226 2841 1201 
693 3341 3343 2918 688 1640 1121 1994 2484 
1939 2420 2930 1567 335 3783 3781 781 1650 
443 2797 1206 762 2929 2917 3710 2833 2069 
2788 331 2509 2003 4223 3271 343 3239 3771 
2416 2837 2051 2477 2075 1651 4086 1653 1214 
2510 2086 320 4224 682 1608 329 2498 4221 
1190 2074 3359 2424 2913 1628 748 1178 3799 
1574 2067 1129 1656 847 4236 779 3360 3788 
3652 2796 1568 690 4210 3362 3804 1215 1122 
2429 747 347 352 2787 3803 1575 3713 2926 
4206 3338 1126 271 775 768 3283 334 3719 
1621 3274 1645 1572 4151 749 1177 2489 764 
1203 317 2932 2511 345 1560 1184 1182 3785 
328 3796 1631 1185 989 622 1860 2059 3769 
2853 2085 2843 355 3786 1629 4325 4101 678 
2846 1952 2410 3819 3150 254 2928 4211 1120 
2770 694 2492 1503 3704 759 258 2375 1566 
2078 2845 2431 3363 1112 3337 1996 2053 4155 
2906 2488 1559 3764 1050 698 344 1630 3276 
1181 2589 2478 1626 4226 3664 1115 4215 699 
3700 2512 4217 3272 336 2907 2377 2000 1635 
4229 746 3361 4143 683 2061 3286 755 2076 
2927 3342 742 3828 1999 1682 4136 2082 3332 
1648 263 3449 3388 771 2937 624 1200 1421 
333 1176 758 1210 2775 264 3350 3331 2915 
3369 4238 2463 3792 3371 1638 3794 2068 1192 
1212 3284 2083 303 766 1552 4196 1174 3292 
674 4179 1481 3255 244 1910 725 2896 2871 
3423 2313 2013 1604 3244 2017 3746 4175 2810 
1404 1166 3321 2884 248 1108 3597 711 97 
4164 2466 2745 2870 4180 2765 3319 1582 306 
3254 3677 2875 2432 611 3686 249 4070 3368 
286 3725 3334 3684 2441 2318 4141 3302 2037 
3732 2747 3303 4162 4134 1548 3176 1533 3245 
3117 281 2007 1987 2862 1532 669 3731 2473 
2038 3259 3322 2973 712 2867 3602 3729 4044 
1547 265 3821 2879 3727 3768 3730 4032 311 
4177 737 3678 299 3298 3247 3675 3249 3695 
2398 1474 243 1168 3318 1968 2080 2036 1969 
173 2880 241 4161 2734 1134 1589 4132 704 
3756 2445 2457 1714 824 1596 1094 707 2404 
2888 2863 1974 2823 2689 3734 4218 3132 1150 
1605 1641 2005 671 720 1538 821 1275 2390 
287 605 2472 301 3759 2685 3308 2071 4113 
1529 1609 2435 724 1545 3676 3750 2467 235 
2751 1097 4056 1160 3738 2811 4185 3626 3709 
1540 279 723 4174 2991 3674 2010 3737 2084 
2881 3317 2885 722 3300 1135 1104 2868 1164 
4129 3320 2820 4287 4145 290 1139 664 1133 
3563 974 2826 2396 2938 2487 2289 1095 4156 
2850 2925 3712 555 1632 4203 3798 1587 777 
1159 4232 761 1571 2346 2715 3772 2835 3720 
4123 4205 2454 1300 684 1967 2910 3151 2418 
3335 2535 4099 2016 3685 1202 2164 2474 2006 
242 2911 1562 1439 2428 2088 2455 133 3268 
316 2934 2865 3354 4146 4233 3277 2856 1198 
1993 1646 2844 428 4225 743 2481 330 2508 
340 2847 341 1634 2500 1130 354 995 2485 
2066 3572 2935 744 3345 1525 2842 3370 3638 
4150 1655 1183 2482 4227 753 3801 3714 3279 
2380 2002 3358 318 270 4237 767 2421 3366 
3701 2050 3706 2414 4016 1132 3711 350 2506 
760 2422 2908 4199 650 3705 2381 2427 1649 
763 1623 1114 2062 324 4222 4200 2513 1627 
2496 1625 4019 2904 1620 2494 326 752 1940 
4202 4154 696 1193 1083 3580 3346 269 322 
3365 4239 2423 1633 3356 1507 3715 778 4137 
4207 3288 3267 2919 3790 1118 266 348 2365 
3270 1992 3879 268 226 1564 1209 2514 4235 
2052 272 372 2923 3152 4022 1636 2411 774 
4139 1667 394 1584 4178 1661 2857 2970 1597 
2048 1717 4282 4253 3843 1695 1660 791 1985 
2948 2117 276 4277 3424 4247 4283 2525 1266 
784 1706 4274 3289 2898 3299 2541 4300 3839 
3809 700 836 1544 2950 3374 831 3854 367 
3735 4279 3842 2138 2544 2047 3404 1543 2543 
3829 2516 3850 2123 788 1550 1268 1541 2548 
2126 3810 2523 3845 2391 4254 1219 2122 1255 
2983 1696 2542 1137 3382 2116 1106 368 786 
1256 2401 2132 302 237 4273 4163 3375 2988 
2561 2979 2145 1271 702 1227 807 3422 2545 
4292 1594 4250 2547 2553 811 400 1611 718 
1697 829 4276 2093 1978 832 1171 2540 3266 
3253 1226 3844 2944 389 3378 814 810 3841 
826 313 1693 1218 2864 812 2133 2971 388 
2942 3297 1715 406 390 3408 4302 2524 2527 
2521 4284 2127 2546 1600 1979 825 284 1252 
1229 1669 2130 1257 408 4244 816 2118 2125 
3384 4240 4297 1217 2439 1662 3381 819 2969 
2966 2471 2830 2137 2990 2951 4281 2091 1253 
1277 3807 407 369 2094 4255 657 782 1710 
2030 2537 2136 2121 1602 2941 4251 2142 1272 
3847 2962 2131 3400 1711 1701 2940 3406 234 
666 2518 3417 2987 1665 393 4295 2982 1601 
405 409 3416 1278 2140 4289 806 404 1702 
1718 1580 1251 1672 717 827 828 4298 3835 
4193 3831 854 1700 3853 809 4291 2531 1699 
2858 3840 2450 1694 2517 2519 1260 4275 2559 
1264 820 1248 4124 2557 785 2120 2526 1549 
2437 673 3376 2967 1249 360 3851 1616 397 
1254 1228 2980 288 2869 1692 3808 1670 2399 
1246 838 1091 3425 410 2100 4243 4272 2515 
1263 658 2989 2560 3003 2984 1663 365 1250 
3875 2144 4288 2949 3418 2985 1709 3264 1690 
3347 2587 1577 2965 1230 2098 2114 1221 2412 
701 361 4301 3414 1152 1707 4195 708 1155 
1691 3806 2090 1224 3724 2438 392 3736 1698 
3372 2128 3855 2032 787 1270 4242 1262 1537 
834 364 2964 3379 1739 864 4271 3443 399 
375 4290 3848 4324 4328 2549 1678 385 1731 
1274 3387 1614 2458 4312 2157 3355 676 1685 
2124 797 4307 3410 2104 1295 3395 413 1622 
3815 1259 2528 2836 1243 2169 1303 1555 1293 
2530 837 3407 3021 4264 3441 3874 848 2994 
1720 3890 3802 3789 1723 1204 4257 855 1683 
3431 349 1681 1305 2107 431 2483 2106 3884 
3885 3699 3458 1233 435 2572 1236 2579 859 
804 4320 2992 2995 2834 3454 793 850 4326 
2173 2151 2921 1677 2596 1234 3800 794 3429 
380 3867 2480 2998 2113 1742 4332 427 2158 
2101 3826 3014 2004 861 3437 1680 4316 1286 
3814 2582 4321 1242 3822 1679 2161 3866 3717 
2588 2162 1187 262 4266 1304 3006 1231 1216 
853 1241 419 3396 3446 2172 3864 2534 3020 
1291 430 2584 2063 1285 2576 1125 3787 2105 
421 415 2148 3776 416 754 2924 1748 3887 
2569 3015 863 2476 442 4305 376 434 857 
3002 2430 2146 2111 4201 3009 2150 3438 4220 
4208 2575 379 1743 769 3393 685 1747 3825 
436 2999 2175 2072 802 803 4313 1296 2592 
3876 429 1289 3005 1282 1298 844 3698 2495 
1733 2851 378 441 852 3818 433 4322 3780 
3444 2159 2475 4310 2580 2153 3339 4258 2571 
856 437 2163 4314 4204 3394 1652 1111 425 
1737 2567 260 1624 1730 2174 2959 3455 3869 
3434 3878 1288 4318 371 1727 3010 1299 780 
3019 2147 3765 4157 1186 3433 3457 1729 3000 
3436 1235 3817 2586 3453 2594 2960 3718 770 
1244 3450 3392 2170 2568 862 4209 3391 1735 
2156 2057 426 1676 692 4330 1116 3888 3816 
2103 858 2849 3367 2591 1658 3011 3882 2566 
3269 2081 2171 420 1281 3872 418 1726 1734 
2595 3012 1744 3007 1280 800 2993 2529 1232 
432 4268 3782 3777 2997 2102 851 2976 3348 
2070 1719 3823 2493 1675 440 4219 801 1180 
1745 3013 795 1674 3805 845 1738 1294 799 
3426 2573 2581 817 2552 1673 401 3377 2562 
1267 2135 3412 366 815 2095 3739 4133 1713 
2945 2143 3409 3383 384 1269 1172 230 2115 
2972 4135 1980 4128 2409 2978 2947 1220 2956 
2536 3832 3403 357 395 2099 2954 2141 411 
1265 1705 1606 398 822 386 2149 1223 2963 
2550 2406 3811 1245 823 1276 2563 3402 358 
1973 813 3749 1222 363 2029 2556 3380 3856 
1153 2952 3857 4245 4293 1688 1666 2565 1712 
292 3834 3849 3748 3859 2968 381 359 721 
808 3858 3305 3833 3860 1225 4249 789 3405 
1703 4246 3415 2974 3852 1258 4299 833 1671 
391 796 1708 1716 2392 3838 2977 396 2096 
2520 4241 1664 1689 356 2119 2825 3812 4280 
2558 4248 2975 1261 2943 4308 3813 2946 1142 
4269 3420 1175 2461 3865 2129 2981 790 3018 
3837 2092 2996 842 412 830 4252 4294 4160 
2522 4261 1704 2139 403 2893 2551 3427 3373 
3399 362 3421 3741 783 835 3428 2097 4278 
4285 402 387 2134 3326 1668 2986 2953 792 