# vtk DataFile Version 4.0
Generated by LIGGGHTS
ASCII
DATASET POLYDATA
POINTS 4233 float
-0.146708 0.0139972 -0.243447 -0.244996 0.00720342 -0.243586 -0.236181 0.0147295 -0.0115607 
-0.214665 0.0115423 -0.244998 -0.202023 0.00567026 -0.244826 -0.181273 0.00567008 -0.244996 
-0.156848 0.0116416 -0.243212 -0.136207 0.0115152 -0.244991 -0.148307 0.0138816 -0.0674126 
-0.130271 0.0133728 -0.234409 -0.192219 0.00759145 -0.244977 -0.167119 0.00541662 -0.244985 
-0.193241 0.0136882 -0.00559442 -0.229194 0.0135004 -0.235308 -0.192385 0.0046497 -0.234577 
-0.173432 0.00351721 -0.237401 -0.140104 0.00863225 -0.236224 -0.16271 0.00560195 -0.235654 
-0.218264 0.00718327 -0.231288 -0.202996 0.0110564 -0.231342 -0.151774 0.00994352 -0.23465 
-0.130477 0.00797039 -0.069565 -0.244932 0.0120239 -0.0947362 -0.185602 0.0147652 -0.230144 
-0.226806 0.0116129 -0.169236 -0.181924 0.0105531 -0.221809 -0.210828 0.0139613 -0.224037 
-0.146005 0.00787237 -0.224915 -0.133503 0.00504845 -0.228256 -0.168307 0.0143453 -0.235131 
-0.231709 0.00590988 -0.224157 -0.193194 0.0145739 -0.223612 -0.179217 0.00151738 -0.227577 
-0.201505 0.00663646 -0.221528 -0.154239 0.0053029 -0.215641 -0.130381 0.0142998 -0.186454 
-0.189648 0.00162423 -0.222385 -0.172564 0.00778418 -0.223879 -0.163681 0.00282861 -0.224079 
-0.134519 0.0131942 -0.220604 -0.208258 0.0121447 -0.213982 -0.24461 0.00162397 -0.218756 
-0.221997 0.0108796 -0.219156 -0.180887 0.0016372 -0.217543 -0.168332 0.0100205 -0.212745 
-0.140766 0.0111695 -0.212983 -0.167202 0.0140607 -0.143379 -0.202484 0.0127947 -0.0986575 
-0.197836 0.0129408 -0.214278 -0.225804 0.0119075 -0.209698 -0.215024 0.01405 -0.206437 
-0.203155 0.00771799 -0.204744 -0.191552 0.0078136 -0.208037 -0.182372 0.0111601 -0.205607 
-0.159128 0.00563073 -0.205615 -0.226805 0.0101552 -0.0165667 -0.235041 0.011464 -0.124672 
-0.178026 0.0125397 -0.180992 -0.14968 0.0128124 -0.207879 -0.16806 0.0142387 -0.203455 
-0.13452 0.0117586 -0.205071 -0.221961 0.0123789 -0.19916 -0.244478 0.0014979 -0.208746 
-0.242447 0.0143527 -0.162929 -0.235692 0.0034294 -0.00720882 -0.20596 0.0107246 -0.0812491 
-0.178325 0.00889319 -0.196334 -0.244999 0.00235432 -0.192728 -0.234999 0.00414022 -0.202433 
-0.210457 0.00925422 -0.197927 -0.194582 0.00593788 -0.198652 -0.216879 0.00757746 -0.00090211 
-0.158786 0.00149728 -0.0179669 -0.130893 0.00819552 -0.0978946 -0.187018 0.0106876 -0.190966 
-0.232998 0.00924159 -0.192115 -0.224654 0.0032053 -0.186512 -0.200377 0.0082809 -0.188284 
-0.160702 0.00952491 -0.191611 -0.147516 0.00930419 -0.193133 -0.134634 0.0100743 -0.194763 
-0.153481 0.00925692 -0.00605487 -0.168464 0.00164128 -0.194313 -0.243197 0.00280813 -0.182891 
-0.193618 0.0146491 -0.184572 -0.174895 0.00153077 -0.18562 -0.148668 0.011273 -0.180418 
-0.136417 0.0110609 -0.178021 -0.214629 0.00435616 -0.184976 -0.210615 0.011712 -0.0306138 
-0.18188 0.0115787 -0.0685092 -0.197369 0.00862291 -0.177317 -0.167946 0.00963945 -0.183329 
-0.225031 0.00160959 -0.176667 -0.207026 0.00648784 -0.178834 -0.182446 0.00370625 -0.178148 
-0.158448 0.00923122 -0.178801 -0.232879 0.00653987 -0.180891 -0.214858 0.0127791 -0.178722 
-0.216811 0.0062763 -0.0133409 -0.233452 0.00232029 -0.016999 -0.244817 0.010327 -0.176501 
-0.244117 0.0028461 -0.000125639 -0.212638 0.0138643 -0.0988546 -0.225547 0.0057817 -0.00722435 
-0.186487 0.0113858 -0.166128 -0.148978 0.00777401 -0.16613 -0.24449 0.00367182 -0.167573 
-0.234972 0.00565727 -0.170835 -0.225928 0.00198191 -0.16673 -0.207477 0.00884234 -0.166579 
-0.196839 0.00610414 -0.167059 -0.174506 0.00909911 -0.166521 -0.163602 0.0016244 -0.171455 
-0.216628 0.0125018 -0.168701 -0.154991 0.0143408 -0.225734 -0.215896 0.00570937 -0.161098 
-0.161293 0.00163752 -0.16067 -0.244953 0.00734249 -0.155842 -0.178211 0.0143597 -0.158659 
-0.155595 0.0132891 -0.161044 -0.136098 0.0100315 -0.166866 -0.234628 0.00540538 -0.153444 
-0.224521 0.0120886 -0.156228 -0.142507 0.00885002 -0.158339 -0.209519 0.00173667 -0.153366 
-0.175553 0.00482962 -0.150964 -0.168204 0.0119471 -0.153306 -0.131731 0.0112318 -0.156648 
-0.201298 0.00571936 -0.158025 -0.185773 0.00554344 -0.153558 -0.236635 0.0138198 -0.0379701 
-0.216943 0.0088901 -0.147465 -0.198618 0.00926313 -0.148585 -0.158143 0.00620325 -0.146688 
-0.148487 0.00870293 -0.147226 -0.244907 0.00162241 -0.141622 -0.221296 0.0123091 -0.0504446 
-0.156441 0.0116464 -0.124676 -0.207864 0.0129919 -0.149275 -0.140921 0.0149107 -0.150315 
-0.23146 0.00766217 -0.144172 -0.208069 0.0108274 -0.139224 -0.190534 0.00743992 -0.143002 
-0.133089 0.00611132 -0.147405 -0.177355 0.00619153 -0.14118 -0.165865 0.00876193 -0.135004 
-0.244969 0.00202865 -0.130768 -0.235235 0.00385839 -0.134472 -0.200625 0.00697825 -0.133183 
-0.143078 0.00858971 -0.138181 -0.133595 0.00732633 -0.135137 -0.223021 0.0071936 -0.13881 
-0.18152 0.00960096 -0.00990982 -0.226453 0.00573965 -0.129507 -0.209732 0.0102896 -0.129389 
-0.190952 0.00411594 -0.130847 -0.17939 0.00250901 -0.130474 -0.168086 0.0016384 -0.127022 
-0.149837 0.00515045 -0.131375 -0.17136 0.0122538 -0.127137 -0.186282 0.00430863 -0.121915 
-0.235847 0.00156232 -0.124716 -0.218312 0.0108006 -0.124278 -0.139414 0.0124602 -0.125537 
-0.244991 0.00630029 -0.120318 -0.19868 0.0119498 -0.124718 -0.178395 0.0105341 -0.119839 
-0.227062 0.00645469 -0.119534 -0.208971 0.00568437 -0.12018 -0.169948 0.00661925 -0.116233 
-0.159915 0.00616467 -0.116574 -0.148945 0.00163947 -0.118418 -0.187208 0.0115902 -0.114622 
-0.237136 0.00162298 -0.113967 -0.216618 0.00941394 -0.11425 -0.177836 0.00536357 -0.109918 
-0.185577 0.0126975 -0.0777689 -0.244655 0.0105745 -0.201596 -0.227311 0.00657801 -0.109357 
-0.173057 0.0107201 -0.0151193 -0.187154 0.00583878 -0.105856 -0.136879 0.00604949 -0.105713 
-0.208761 0.00956134 -0.107173 -0.148193 0.0115216 -0.104193 -0.236416 0.00877906 -0.104761 
-0.21847 0.00740011 -0.103807 -0.196713 0.005262 -0.110855 -0.16783 0.0137192 -0.103891 
-0.169386 0.0105527 -0.00550955 -0.157658 0.00906097 -0.101234 -0.243761 0.00213511 -0.102779 
-0.227821 0.0034664 -0.0997218 -0.13811 0.00249373 -0.09012 -0.244735 0.00160458 -0.0888751 
-0.222228 0.0048783 -0.0896737 -0.21393 0.0045373 -0.0953789 -0.200203 0.00217268 -0.10128 
-0.168813 0.00939636 -0.0935865 -0.149982 0.0091048 -0.0934291 -0.236551 0.00455065 -0.0936882 
-0.18652 0.00162424 -0.0963429 -0.159435 0.00857366 -0.090242 -0.205823 0.00480638 -0.0895311 
-0.235438 0.00171736 -0.0803557 -0.216104 0.0135738 -0.0838215 -0.195253 0.00164682 -0.0910144 
-0.186584 0.0044586 -0.0854766 -0.196633 0.0080131 -0.0788139 -0.160231 0.00196143 -0.0810552 
-0.225584 0.0105119 -0.0816333 -0.168648 0.00651843 -0.0838891 -0.150141 0.0113323 -0.0801264 
-0.244549 0.00150933 -0.072892 -0.217886 0.00843088 -0.0749921 -0.206101 0.0039052 -0.0737941 
-0.16773 0.00467326 -0.0740755 -0.153092 0.00162085 -0.0740949 -0.202496 0.0129868 -0.00141435 
-0.178385 0.00538413 -0.0770538 -0.138157 0.0074191 -0.0767042 -0.226804 0.00903512 -0.0694625 
-0.18917 0.00391518 -0.0720199 -0.235851 0.0135903 -0.0740257 -0.161251 0.00163972 -0.0637497 
-0.205756 0.00623377 -0.0616852 -0.236923 0.0101579 -0.0640262 -0.216986 0.00713184 -0.0648093 
-0.197887 0.00889102 -0.0675756 -0.183266 0.00599004 -0.0595377 -0.148722 0.00280342 -0.0651918 
-0.244956 0.00731022 -0.00944116 -0.172548 0.0085581 -0.0661403 -0.139766 0.00718327 -0.0658544 
-0.243341 0.00965025 -0.0553852 -0.219888 0.00264785 -0.0559668 -0.196021 0.00604629 -0.056851 
-0.173836 0.00450838 -0.0541448 -0.153405 0.00663227 -0.0570168 -0.176462 0.0137357 -0.0570784 
-0.160084 0.011789 -0.0791957 -0.158078 0.0145652 -0.0654316 -0.188576 0.0146348 -0.0149519 
-0.231853 0.012771 -0.0519695 -0.244104 0.0134507 -0.0460041 -0.184611 0.00849594 -0.0495944 
-0.166034 0.0133706 -0.0595156 -0.162675 0.0119948 -0.0132271 -0.136721 0.00975899 -0.056376 
-0.168444 0.012481 -0.0483529 -0.145054 0.00919868 -0.0508297 -0.228041 0.0067051 -0.0419922 
-0.217297 0.00543245 -0.0440583 -0.206599 0.00618601 -0.0473497 -0.195329 0.0105273 -0.0414021 
-0.131917 0.012835 -0.00983602 -0.131757 0.0121005 -0.0303021 -0.242335 0.00537698 -0.0392753 
-0.200778 0.00423389 -0.035652 -0.184059 0.00216329 -0.0416103 -0.150972 0.0100073 -0.0427654 
-0.139611 0.00489191 -0.040151 -0.176691 0.0121934 -0.0416365 -0.23416 0.00558672 -0.0316718 
-0.220123 0.00610945 -0.0338931 -0.210752 0.0025674 -0.0348902 -0.168071 0.00922279 -0.0355473 
-0.147566 0.00156681 -0.0318654 -0.190537 0.00687363 -0.0332581 -0.156226 0.0101064 -0.0336228 
-0.139828 0.0141128 -0.0361304 -0.226037 0.00515645 -0.0258488 -0.192073 0.00821842 -0.0219917 
-0.182059 0.00223944 -0.0306526 -0.172083 0.0113254 -0.025292 -0.162951 0.0072978 -0.0266045 
-0.139204 0.00605465 -0.0272609 -0.244949 0.00888807 -0.0300706 -0.244105 0.0122214 -0.18925 
-0.200971 0.00531114 -0.0256685 -0.229977 0.0120006 -0.0912276 -0.243558 0.00498784 -0.0203403 
-0.208017 0.0028756 -0.0188536 -0.138555 0.00825916 -0.0171949 -0.234948 0.0108145 -0.0224978 
-0.21661 0.00795901 -0.0232079 -0.141263 0.0100259 -0.00519381 -0.243983 0.011256 -0.212746 
-0.146787 0.0127005 -0.0242235 -0.200186 0.00766005 -0.012218 -0.182271 0.00748846 -0.0201163 
-0.1484 0.0079546 -0.0154757 -0.244976 0.0109266 -0.0698966 -0.235771 0.0124618 -0.114748 
-0.152002 0.0125169 -0.115461 -0.193265 0.0124242 -0.0942547 -0.179685 0.0121323 -0.133467 
-0.244619 0.0132365 -0.130036 -0.133089 0.0124256 -0.0890765 -0.164465 0.0133406 -0.222638 
-0.245012 0.0132247 -0.0847661 -0.182107 0.0139485 -0.101501 -0.175718 0.0135269 -0.0827632 
-0.16631 0.0142807 -0.0717795 -0.213375 0.0148944 -0.0588188 -0.233038 0.00482434 0.00242277 
-0.1876 0.00449364 0.00428329 -0.17707 0.00504826 0.00134671 -0.154117 0.0138685 0.00998816 
-0.132715 0.0109429 0.000277454 -0.245001 0.0112242 0.207461 -0.194985 0.0140068 0.00511905 
-0.223617 0.0125529 0.0944939 -0.134179 0.0121327 0.0126857 -0.144705 0.00939039 0.0111268 
-0.244089 0.0107424 0.00614169 -0.176602 0.0121647 0.236159 -0.214819 0.00647073 0.0117231 
[...]
POINT_DATA 4233
FIELD FieldData 3
id 1 4233 int
525 1341 3044 2638 3502 871 1792 13 2309 
469 1337 3898 634 5 3543 3460 3494 1313 
1786 1783 3631 1013 3463 538 1345 1476 3922 
1477 3022 3551 487 2202 12 2182 2693 3937 
1344 1325 3190 4001 39 471 3486 2217 2210 
3942 2212 1756 3484 3466 586 1761 3187 4004 
3056 38 448 2176 919 484 1012 876 1354 
3938 889 2598 2640 3495 2184 1350 8 3949 
169 1314 47 3926 481 15 489 596 1366 
3561 3074 2207 486 3025 492 4047 3070 2604 
3036 3061 477 1752 1420 590 3059 1797 62 
3032 3104 3465 77 3471 1316 535 1915 3504 
450 3057 1758 36 904 1778 162 1319 2632 
465 468 3079 2277 576 37 4034 1363 3461 
2641 3511 1791 2263 2256 1311 1348 1312 1793 
3134 63 2599 912 872 2631 3931 2199 3925 
546 1775 488 921 54 466 2636 868 1310 
3903 1762 491 926 1339 181 3051 1406 10 
59 2195 2201 2220 901 2764 3896 1355 2752 
3068 485 1801 2644 1798 3037 1924 922 881 
3923 1781 52 1322 3130 2314 3532 1362 2180 
1054 1906 898 3894 924 2639 1751 1856 3544 
3482 1883 1357 2755 1849 1838 913 1787 602 
2198 1416 1010 479 905 2328 900 3030 483 
3630 961 2664 3951 3159 3076 1795 3115 1411 
35 3459 3491 1900 3506 2196 874 74 3932 
2646 3078 1352 1340 3892 3521 55 1019 142 
1408 3982 2643 2183 1330 1852 3510 2334 2698 
2645 3050 1753 885 553 1361 3047 493 3468 
4 869 9 951 473 2620 2223 452 50 
3905 11 883 3086 510 206 182 3464 475 
1333 2602 3929 1359 2299 2635 3467 44 3055 
220 2236 873 1356 1342 3049 1044 877 1338 
2622 3985 7 3944 3893 3189 1911 3028 89 
2336 2179 1908 1904 3090 3236 3043 1834 3215 
476 1516 3928 516 3064 3644 519 3975 51 
3202 2637 1443 3635 891 2617 1393 558 505 
2204 2656 3093 4073 2650 3968 3229 3958 457 
1865 3148 3512 1397 3520 3917 1470 4026 1386 
2708 23 33 916 896 185 1947 2661 3480 
2233 4013 17 953 4015 3978 92 3957 42 
3147 3141 211 935 3914 2225 938 2672 1422 
93 3513 1528 3097 1381 882 499 1833 1827 
2611 60 2676 88 4104 2254 937 1394 2239 
2248 3973 2378 1335 2363 2374 1475 1069 4024 
1501 888 449 947 66 892 3039 1060 886 
3645 84 2654 3955 3952 948 3145 3094 1814 
1074 463 3979 3088 3953 3535 64 1385 94 
3538 1373 515 1384 3981 3474 3962 955 2244 
1061 1505 2229 126 217 1376 940 3534 3087 
3048 2663 2677 1934 3964 2678 1809 2241 944 
1764 4091 193 3095 1811 1369 956 2242 628 
4077 1336 32 1334 1392 3082 1370 1862 1820 
3101 2608 2791 3478 2614 3533 2609 1063 509 
2238 3475 514 3091 929 4017 1500 1326 930 
2190 507 518 2186 506 1327 520 3657 1816 
3098 1429 501 952 3100 2191 1372 1810 3523 
2707 1051 949 2188 3103 2675 521 3109 3107 
27 2809 3539 2666 1769 3911 2231 456 1390 
1821 1830 3476 887 494 3967 1768 1963 1527 
954 1808 2668 548 3528 3920 3045 1871 458 
3144 3956 1815 219 1423 1817 508 1770 75 
1071 71 3481 79 4098 2674 3516 894 4111 
3578 72 567 3569 895 2252 1062 4074 3906 
1374 522 199 4012 3092 1766 2660 638 28 
3046 3959 500 3915 3913 69 2232 503 2192 
1076 927 523 3540 1391 2653 923 2243 931 
3966 3083 1771 4094 2189 2652 1377 3472 3492 
1317 99 4066 1750 1003 2185 2353 2200 1512 
3930 451 445 3038 3024 96 3891 917 2312 
2607 480 1921 2597 1774 3034 2178 40 1510 
454 1777 879 3485 3069 453 2216 177 3897 
1842 3946 1800 1448 3035 909 3053 902 1483 
3054 3180 911 1031 2736 3067 462 880 910 
1918 1320 2221 3545 1353 3936 2197 3077 2177 
878 2746 16 2634 1837 444 2601 1401 1032 
3924 1759 1360 1321 3041 1796 58 3628 925 
3026 594 3163 915 1467 996 2219 906 3116 
1349 3071 3899 3195 3643 2621 3487 2732 53 
1332 2629 1358 3120 1923 490 2649 49 3490 
1315 531 3065 2606 3508 4053 3503 899 46 
2211 2600 2205 1788 3947 2295 1479 45 3186 
1346 3940 67 1445 1898 3994 472 3182 1375 
1343 2642 2624 1950 1347 2181 3992 3108 41 
1784 2756 2699 446 1078 154 606 1755 608 
2325 2605 3029 614 4050 2648 467 2379 3904 
3113 2208 966 2337 1413 3624 1 2209 218 
3943 3063 1351 3112 3 3196 3927 3902 1757 
464 2627 1779 2623 3542 3483 474 2218 907 
3469 3950 176 3489 2628 3031 2625 2215 1371 
2723 68 1794 512 498 549 2633 2 3033 
625 1318 3052 2655 2286 2670 2679 914 2251 
3570 2626 1396 511 1813 3971 2769 4080 1938 
890 2293 30 3963 933 1802 3919 3106 3213 
2203 1328 2235 21 3530 3477 43 1767 1785 
3537 884 3918 2250 76 4076 4083 2667 34 
3081 2227 3517 1826 194 1937 187 3671 130 
1388 18 2669 3522 496 3228 1424 3907 215 
1951 3084 2615 1380 4071 3085 4103 1763 1331 
29 461 495 945 57 950 24 3099 2226 
224 3110 2612 2610 3970 1930 25 3910 3527 
1087 942 561 3912 2253 3230 4082 2240 2280 
2234 3969 2349 1378 1828 3666 2724 3111 3648 
513 1511 1382 1383 2230 637 2768 459 2783 
3525 559 2281 3961 3515 216 3960 3531 2657 
1962 2342 984 3529 934 3080 19 3976 95 
460 1329 2665 90 3972 3909 4097 3921 2781 
2358 2228 2613 2658 128 2651 1772 3204 1812 
2193 2673 1773 1824 2713 2224 227 1520 3980 
3518 2383 1499 1387 85 225 2722 81 1776 
1823 3479 1389 620 1819 3916 1807 3158 3493 
4106 2804 893 3153 643 1822 3908 2659 470 
190 936 1879 3965 86 91 3231 932 3536 
939 1395 601 1324 48 604 155 1803 3599 
3166 4158 1455 4039 3496 3557 3604 2340 3126 
3933 2042 173 593 158 504 4042 4006 3473 
3598 2302 2466 1461 1403 2271 447 1922 1109 
2264 1016 3133 530 3552 2329 2754 3619 3610 
1026 4064 1839 1552 1841 2270 1028 3728 529 
2760 1030 3989 3988 2301 1894 1040 1447 4070 
3560 144 577 4041 2922 2462 2333 178 1402 
2327 3119 2259 2762 1038 3298 2331 3183 578 
1896 967 3995 3615 1903 103 573 1789 183 
3178 1027 1015 4173 4030 1882 1846 4037 1037 
962 3986 3122 1654 2759 2697 3895 959 2311 
1909 1398 1853 3556 3175 4060 639 3606 1754 
977 1446 1462 306 161 104 3554 2316 163 
1913 4002 731 3171 589 4069 1845 973 600 
3169 3129 2275 1460 150 3154 4067 2040 3996 
1418 2686 1888 957 3125 3173 2308 1995 2701 
968 109 2387 4190 527 1484 1014 172 108 
2206 572 2690 3596 2753 1592 958 3592 3027 
4003 1579 149 3131 3121 2696 3308 2269 1018 
295 3614 1850 3603 2821 1452 297 3075 198 
2861 3555 3310 544 6 2266 101 3181 605 
2803 603 1843 2339 4038 3174 2272 167 545 
1041 675 2684 1765 1920 2725 2738 152 543 
969 2274 1536 1799 1058 4045 2268 117 2695 
2213 1886 1456 539 3608 3590 4062 116 1482 
4052 1478 532 599 3553 1887 607 2681 2255 
3625 1163 528 1004 1760 3168 542 4172 547 
4061 2341 2351 2260 4051 3984 1043 1450 180 
1430 972 1867 2889 2321 1029 1097 1419 4029 
3613 3595 2332 3611 1039 2771 1848 1100 146 
3160 1453 555 1912 110 1006 2822 239 3621 
4046 2748 1458 2647 2306 3612 3172 1454 875 
2041 2702 2313 963 147 337 1449 3733 2727 
98 129 2276 3629 1399 4078 4055 3233 184 
3114 745 3185 3220 3201 1471 1914 1400 3058 
3167 175 3574 1409 585 2731 4040 2700 1899 
3205 2728 4000 2320 1417 3170 1412 179 1891 
4108 1854 192 3627 1857 1009 3993 971 1897 
3193 2685 2396 3670 3212 1057 2907 1522 4087 
2354 3192 2763 2890 1379 1048 195 1473 987 
1870 975 1188 3105 222 1428 1433 1864 982 
3218 1490 1944 3665 3639 223 1052 3470 3209 
1495 631 3194 1210 1526 3650 2779 3146 3672 
1425 2382 1119 1889 4014 3716 3206 3784 1194 
2194 118 1067 2630 123 315 2415 642 2780 
630 4008 695 3219 653 3235 4223 3333 2793 
3617 2916 635 3137 3579 1935 3673 1991 757 
3138 980 618 3142 2278 1942 4150 565 342 
1868 2503 4072 4025 1367 136 3662 570 2380 
551 943 2717 2050 636 1081 228 2788 2776 
3655 1080 3668 4010 2355 3571 221 1506 1053 
2718 1836 3663 205 208 4079 3641 1878 1047 
1804 2319 133 209 4081 2425 2068 1933 2300 
2662 3636 641 113 4212 1497 1432 3637 3566 
229 1876 4089 83 552 3653 1438 4227 655 
3143 1431 321 78 135 2703 1064 1955 640 
3216 124 998 3954 2247 629 1427 3646 3240 
2711 2282 2801 3360 3208 2245 3783 1621 1966 
616 651 2237 20 3139 2356 645 4020 2366 
3632 1574 569 632 1649 571 3135 1202 1504 
568 698 1073 3526 2357 4086 1874 1436 997 
2373 3140 3656 1065 2918 3581 647 2249 1508 
619 207 138 189 1872 1056 502 1515 213 
981 2719 2799 1442 3586 3589 1866 617 656 
1050 1426 2789 3102 31 994 3136 985 137 
2807 992 3155 1079 3660 1518 1946 1949 202 
1498 626 2359 989 3576 2802 1956 2283 2937 
1493 4102 2375 1863 1958 1524 1086 2348 214 
131 4075 627 566 2616 2794 1960 2002 644 
2706 928 990 2386 556 139 2187 1509 615 
3778 3658 4023 4027 1049 1496 648 203 1940 
4028 134 143 1489 2808 65 1869 2778 127 
1881 3977 1368 3156 201 986 622 2056 1825 
562 2350 1573 1439 3207 3224 327 4009 4109 
2086 1659 120 2787 2501 1646 3583 1565 2352 
3040 2796 1491 3519 1001 3237 2343 3654 4031 
1117 2305 4115 2012 2317 870 2315 3983 3620 
526 2688 3729 82 2324 4035 740 2258 4005 
1459 2267 1749 4043 112 3118 2680 4065 908 
1410 3250 1486 3547 1480 3760 3197 613 974 
4058 2397 2806 1884 2730 1023 1917 1415 2744 
3300 245 1619 3622 2603 2687 574 3263 1595 
3761 2749 3686 2344 159 2709 3462 196 3177 
3623 524 106 1472 1468 1901 170 4036 2761 
623 2376 3128 1464 3607 738 588 156 1890 
2750 970 537 145 1414 186 1844 281 1902 
978 1024 610 4187 3688 174 3935 598 1782 
583 1365 1858 2398 3939 3948 3609 61 595 
2694 3124 3692 1905 3188 1893 4169 2691 2265 
2734 575 3558 3307 2322 105 148 903 592 
3605 2326 4171 2307 2367 3998 976 2742 1034 
579 2310 584 3127 2464 714 2786 3565 2257 
587 1466 2692 191 3248 22 3690 581 3191 
1907 1437 3618 2726 2407 3616 4007 1885 1451 
2023 4048 1036 1017 3709 3559 2214 960 1405 
157 346 1021 533 4049 3062 2682 1790 2766 
3562 1637 3200 652 4057 4033 1851 1022 3990 
541 1011 3164 482 3509 2020 612 3548 597 
1085 308 3987 1005 3602 2757 2733 918 168 
1840 1444 2758 1035 151 102 3258 761 80 
4198 3280 1517 1990 517 2290 2740 654 1948 
2384 1521 3364 1895 3567 3227 1494 2777 1059 
3241 122 2775 3649 3242 125 2369 4011 1831 
3217 4132 965 1957 560 2368 3659 3524 1945 
4100 4112 2419 1083 1002 3719 3573 3791 3222 
2287 3594 3711 2481 2294 1502 2939 3781 1926 
1941 1861 1925 4216 2288 3633 1943 1211 3238 
3703 140 1435 2362 1070 1066 2298 121 3771 
1407 1123 4139 2006 2784 1805 3585 200 4018 
4022 3221 2710 3157 941 4136 3587 1873 2074 
4085 1441 995 1046 633 1084 3234 2785 2720 
1953 2773 554 2774 4084 1875 748 1075 204 
4092 1492 649 3575 991 1077 3096 1954 1928 
4088 1434 1000 3223 2292 3568 778 1927 1832 
1082 455 4234 564 1514 2279 3149 2792 2790 
2805 1959 563 3214 2712 3203 1131 3582 2795 
946 3647 2364 988 268 2347 621 3588 3661 
2671 550 3211 2782 4101 1961 4090 4110 2285 
2505 3708 1877 2246 2714 2705 4107 1488 3577 
4215 1025 2291 2772 3669 609 2847 3642 70 
2069 1179 2704 2297 212 1965 983 100 1932 
1103 3162 2824 1465 386 3294 3746 2044 2273 
3321 3314 3252 2868 4176 3413 2871 1986 1205 
2035 2870 250 1582 703 310 3292 3303 3721 
2767 2453 1584 3184 2013 1108 2814 247 964 
282 4186 674 3564 2434 2451 1835 2403 3755 
4177 1174 233 4188 708 171 2884 160 3726 
1577 729 2810 3262 660 3323 1007 2318 2408 
2873 3740 1608 4130 711 1542 3752 4121 668 
669 3313 706 3749 728 2400 3679 2765 2014 
3266 2564 4197 2026 107 536 2007 4192 2747 
2542 1632 3330 4032 1169 3774 3846 3322 1711 
4135 290 704 232 111 730 1688 1602 3291 
274 1968 2895 1892 1547 3677 3306 2471 3302 
2954 3261 2743 2819 1598 1548 3304 3732 1611 
3410 979 2828 243 1982 720 3751 3408 3695 
2830 3731 662 1149 3687 719 3165 238 1605 
292 4166 1094 1591 1101 3747 724 2405 4054 
1983 3597 3754 1531 2404 2452 1463 534 1596 
3326 1593 3997 2735 2071 733 3742 666 241 
1481 1590 114 1599 736 2886 4160 2519 3328 
2433 3309 299 4167 2440 1139 2823 2435 3734 
1457 1138 1089 305 311 3257 2457 2866 304 
1474 3296 4181 2811 1090 4126 2454 2880 1142 
1170 280 1469 4183 1008 1665 3845 3593 2262 
667 1731 580 3317 727 2015 2878 3318 2990 
1976 1551 3324 2394 2741 3626 1146 2402 732 
540 1088 2874 661 2831 3838 1984 3232 4149 
1530 3689 2127 1096 188 1150 1641 3683 2829 
2859 1616 1173 677 277 283 2304 1156 821 
1148 3244 2447 1538 2446 2027 2084 2018 1107 
309 1529 2022 4228 1975 251 2813 3199 4189 
1099 2467 2872 4141 722 2437 1988 2330 3198 
716 2045 4127 4113 3723 385 2883 4131 3763 
2472 1160 2436 2875 1537 2487 287 2444 4312 
236 2080 2460 3694 2905 4119 1540 2817 1161 
1987 2008 1102 3290 404 2881 3753 611 257 
3676 3674 1208 3563 300 1197 4114 2393 2739 
1855 702 3762 3372 2751 4165 4205 2323 166 
2036 2862 734 1158 279 3151 2442 1981 663 
2879 3600 1589 3132 278 777 1113 2449 3423 
1586 2470 3275 1212 333 255 1167 4295 1657 
2088 1141 2938 1440 1974 697 3264 338 1612 
1603 1534 1609 1245 2854 2925 773 1561 1177 
259 1967 2043 3287 3769 2914 1126 3451 3273 
4263 1916 1503 294 3278 319 2899 3685 349 
2919 2479 2429 999 324 2507 1136 4044 2455 
1127 4231 775 323 2360 582 1994 3640 267 
3256 3282 2850 2289 4161 2064 3798 2149 4230 
3707 2427 3336 691 4138 3348 3584 3999 687 
2003 2502 2930 2060 2882 4203 2426 4170 3819 
3343 3572 4200 2079 2480 2061 4206 3283 2915 
4237 4225 3836 2923 1247 2066 235 4218 2485 
3788 774 3349 2421 419 1182 759 2844 2474 
3226 2504 1124 1556 2929 4316 3759 3702 2865 
1644 1674 3270 684 1952 2420 2900 2839 770 
1130 4063 2721 2910 3271 765 2833 3786 3667 
2901 4222 1647 767 1198 4221 2416 4156 2414 
350 3362 769 3773 2837 2428 679 4147 744 
1132 270 2109 2716 3706 1653 4202 340 3354 
320 754 2856 4019 764 1651 4236 1190 1068 
2051 762 3338 2913 3279 2067 4224 1289 3698 
1723 2508 317 4210 1638 3365 1129 1214 334 
1421 3239 2070 382 3799 3710 2513 3768 1880 
329 1652 1045 318 2841 1620 3346 3823 3341 
2494 2509 1215 1523 3804 1201 2926 1629 2296 
2510 1628 1185 2057 1992 1572 3796 1623 779 
4211 322 3718 1560 2514 2372 2770 2800 2284 
3353 1112 766 2506 2478 4220 3019 2512 2846 
2410 4144 1658 1736 2853 2511 858 3764 1648 
1114 678 347 3392 4155 557 3276 4199 1567 
755 1997 1199 2845 3447 4143 345 3369 1633 
1507 1727 378 1120 264 1121 2912 3580 1286 
2053 1639 2371 3651 2906 355 3359 1559 3779 
699 763 1072 3436 3704 4153 1200 2058 2488 
226 4095 2361 624 3150 3785 348 1562 3272 
3720 3775 197 3801 3350 2085 1996 1176 3152 
2927 3634 4229 650 380 3371 756 3277 3772 
4325 1936 694 1571 3824 3358 3691 4233 4318 
3331 2500 1192 210 2365 3337 1184 1689 1267 
285 705 3422 1972 275 314 2896 4194 658 
2818 3744 4174 1610 2465 3161 301 3549 1404 
3591 289 2745 4191 3293 3254 4164 3991 4105 
1544 3681 1910 4068 2303 298 1093 4163 1581 
2816 3253 3319 2689 3251 2037 2143 1588 1546 
2009 2389 1110 1604 2892 4184 2729 367 3730 
1140 1973 725 2021 2335 709 2683 240 665 
1535 2261 737 291 3722 2034 3281 3737 671 
1532 739 659 814 1143 231 3757 1969 3684 
3312 1155 2867 3301 4122 2448 3176 4118 249 
3794 723 2894 4196 1919 1157 2019 2459 1133 
832 3601 4168 1166 1165 2039 273 3750 3727 
3693 4059 1033 293 2888 3259 2468 4056 1154 
3327 2441 1585 3546 2456 2461 1222 1134 2338 
1168 726 356 3246 3316 3249 2028 1162 1583 
3745 4129 2991 3697 2098 2891 3329 1971 2445 
3756 1718 3743 3379 246 4238 3295 164 1485 
2902 3325 3375 1539 1929 4159 670 2860 381 
713 3758 2473 4185 1615 3265 2877 1847 1617 
2876 4287 3682 2737 3260 115 2090 3117 1135 
672 244 4294 248 2432 710 2812 4117 4182 
2388 97 3255 4162 784 1578 396 4120 165 
2092 296 862 2497 2928 1095 1525 3795 4195 
2498 2059 4099 2024 4145 701 4154 1487 2089 
119 1563 2903 2087 1977 1576 3821 265 1566 
2076 2852 3288 344 1642 1115 2934 2164 1213 
3334 2715 1042 771 689 256 681 2005 4226 
1159 1558 3245 1092 1238 325 688 303 1128 
2065 331 253 335 4148 3345 3340 272 2346 
686 693 3352 2418 1931 1183 1196 2381 2049 
776 3267 4152 993 3714 1300 1568 2413 781 
2154 2173 4213 1195 3335 3664 2385 1630 1655 
153 1553 343 2001 2933 1206 646 4096 4157 
2908 1860 2904 3803 1181 690 2103 1178 1998 
3366 2797 330 1631 682 2935 3449 2424 3356 
3274 2052 3652 696 4016 3871 2345 141 743 
2062 1625 1122 1627 2917 132 332 1575 1939 
4151 4146 3407 271 328 1193 1055 2370 2167 
2431 2055 3713 1640 269 1645 2377 3225 3712 
3284 352 3332 266 3701 2078 4093 1634 1513 
752 1564 1999 2843 4142 3361 3363 3765 3457 
443 2489 3286 3243 254 326 2000 760 425 
692 2046 2798 712 372 1859 1203 2842 4137 
1626 3638 680 2054 2484 1650 4320 316 4310 
838 1696 401 1661 230 1673 4277 4283 408 
2944 3383 2144 2970 1710 4288 823 4279 2562 
4179 1989 2141 1255 1695 2038 2469 2898 4193 
2945 1980 2950 3739 1985 1541 3675 3811 2543 
4178 3839 276 4133 3841 2565 1152 2122 2140 
395 3289 2031 4116 3395 2552 1277 2391 4247 
3854 2548 1717 2988 3843 1264 3849 3378 2544 
2963 3735 2563 3829 1271 1706 2977 3832 400 
4273 4250 237 2094 1266 807 1600 2556 1550 
4275 3424 3856 2128 2145 2123 811 3377 2864 
2942 392 4276 3402 3374 1218 1226 3403 398 
826 3382 1224 2964 1606 3380 4284 2561 4299 
2450 1275 788 1690 1220 1712 809 1705 1587 
2137 3810 812 1153 2132 1697 1252 1671 411 
252 2974 830 286 1251 234 3844 2527 1098 
4249 2521 2142 4128 2133 833 3852 1669 1106 
3320 1257 4125 2392 2952 288 2975 786 4255 
2966 3376 3384 2107 2439 1258 2131 2956 1227 
387 4293 1979 4240 302 816 1707 2547 1217 
715 3725 3859 4297 4244 4302 3813 1145 1262 
3406 4281 1248 2130 2951 3807 2987 792 1700 
1594 3840 3858 410 1662 2016 790 3833 2546 
782 2118 399 1144 2559 1246 2139 1709 2531 
406 2136 2129 1970 1663 4278 361 1175 836 
2949 3835 3831 3441 3417 2518 3018 1613 3415 
2399 3381 2120 1260 2827 3812 4285 3405 3865 
369 2526 3738 4124 3428 1225 806 3421 2982 
1692 2557 2010 1223 1701 3385 1699 365 2985 
1091 2986 4298 3425 2152 2096 2815 795 4280 
3808 3311 3842 4242 2030 393 403 2981 1713 
3857 2558 1702 4296 2897 854 1254 2097 1259 
1545 3881 1720 820 664 2967 2989 3724 2114 
2124 3418 3848 3458 4328 2855 842 3299 2524 
1533 1263 3873 4292 2943 1250 787 1278 3400 
1694 700 1693 2138 1601 2047 3297 2116 2458 
2834 3003 3805 4308 851 3446 1221 362 2536 
1614 3875 3373 1739 2984 817 3414 1735 3355 
1303 1704 440 803 2994 431 2483 1666 4272 
4309 360 2549 2931 2566 3886 2911 3876 866 
798 3347 4317 741 2995 1622 3815 1274 2992 
864 4123 1618 799 2532 4331 3885 3699 3884 
3012 1555 2417 1232 3432 3820 1204 2160 3789 
1557 1734 3822 4270 435 3419 3890 261 1740 
2587 3268 2528 850 4271 1744 2530 2106 3016 
3717 1676 1732 3828 1216 2108 1993 4306 2909 
1236 1742 793 859 377 2075 262 4326 427 
383 2100 413 804 2595 2588 3437 857 1242 
3357 2554 1293 374 860 3390 3009 2581 1189 
1675 3386 3867 2491 370 2838 2920 2579 3800 
3861 2162 2499 3792 847 2534 853 3864 3770 
1290 2572 2004 1679 4329 354 1180 2105 442 
2840 2430 1738 2585 4305 3715 430 2422 846 
2148 2596 424 3396 2961 1292 845 2959 2486 
3017 3889 4313 3020 2582 3439 758 3397 4332 
4257 2495 1118 3370 1294 421 4256 416 2496 
2111 379 2492 1125 3802 4319 2163 1116 4258 
1287 2482 750 2174 2157 3438 3818 802 2476 
1686 849 1748 852 4303 2590 2535 3877 1302 
3435 683 3391 2423 2490 1243 1636 685 2580 
3010 3776 3882 1726 1306 3433 753 4208 414 
3000 1684 3863 2594 749 2576 742 3878 2573 
3002 3826 2936 3388 4314 3825 2960 4209 436 
2156 2848 1239 2571 1244 2851 1721 1111 1737 
1296 420 2072 2475 1281 3005 841 3398 437 
4265 3269 1301 3011 3434 1284 418 2159 2835 
2493 2166 2147 3339 2477 3430 376 800 3007 
1682 2568 432 3448 1570 3879 3004 2993 2171 
4260 3880 3453 4239 3780 3883 1209 2081 2586 
2997 2955 2412 4262 2998 2155 2161 1285 2976 
2577 3367 1235 3006 2104 3399 2921 429 3869 
260 4201 3416 4282 284 4253 1660 2980 384 
4254 1256 2409 2135 1714 2115 3809 2029 791 
2979 1698 3850 1265 783 2406 4245 834 2968 
2948 1219 2099 1164 1667 2550 1137 2011 3678 
831 1543 407 1268 364 1703 815 3427 3404 
825 368 3748 4274 2972 2033 1978 2025 2885 
2134 357 2553 813 3741 810 1171 2095 829 
1715 3855 2969 707 3247 718 405 1597 388 
2539 1708 1261 2017 390 2390 2520 2545 1716 
1172 2973 2947 2125 4246 3860 2438 363 3305 
2869 1249 3834 3736 673 2093 394 1270 313 
1283 2887 2983 828 1668 3420 391 1580 2537 
2971 717 657 1549 389 1607 1664 3847 1105 
2443 2517 1228 822 3851 824 2893 409 2940 
2996 2032 1276 359 3853 827 785 3368 412 
402 835 1272 3837 1691 2832 2965 2978 1672 
1104 2941 2515 2863 4261 721 4301 3315 2858 
797 2560 3426 780 3412 2826 1670 1229 3866 
438 3409 1269 2126 2541 4251 2401 2121 4291 
4241 4289 796 4134 2117 1253 307 2946 2820 
397 2175 2825 358 2048 2523 3452 3817 1151 
4324 4286 3014 3680 2522 4269 2953 3790 2151 
3766 3394 1305 4243 3777 4307 3431 840 4290 
2168 3344 3888 2119 341 4264 855 4217 2958 
2169 3021 808 1733 1569 1681 2463 2077 676 
837 2538 1741 1554 1745 865 1233 423 4321 
2101 4021 794 1725 415 3342 1234 426 1241 
422 3389 339 417 2957 242 373 768 1678 