# vtk DataFile Version 4.0
Generated by LIGGGHTS
ASCII
DATASET POLYDATA
POINTS 207 float
-0.24345 0.00493362 -0.244921 -0.220183 0.00509331 -0.244974 -0.210608 0.00479648 -0.241971 
-0.201019 0.00510566 -0.244997 -0.181498 0.00510003 -0.241979 -0.168719 0.00488067 -0.242094 
-0.231964 0.00510006 -0.239221 -0.191837 0.00481405 -0.240709 -0.243829 0.00482729 -0.231958 
-0.233075 0.0050718 -0.228687 -0.166496 0.00475772 -0.229135 -0.24472 0.00495303 -0.221971 
-0.178912 0.00507836 -0.21809 -0.234743 0.00478852 -0.213833 -0.223687 0.00476018 -0.216726 
-0.197338 0.00509349 -0.21543 -0.227305 0.00509812 -0.206902 -0.217299 0.00506194 -0.207078 
-0.172907 0.0051223 -0.200898 -0.245 0.00484408 -0.193633 -0.229743 0.00507007 -0.196665 
-0.218126 0.00475326 -0.197073 -0.206439 0.00506039 -0.189353 -0.192578 0.00472415 -0.191826 
-0.181633 0.00473539 -0.189392 -0.169232 0.00510033 -0.191188 -0.230991 0.00509304 -0.186721 
-0.244601 0.00475885 -0.180649 -0.223708 0.00476593 -0.179805 -0.204101 0.00509592 -0.178942 
-0.191834 0.00507942 -0.178036 -0.214365 0.00475461 -0.173619 -0.169055 0.00485777 -0.172176 
-0.162464 0.00480237 -0.164277 -0.24395 0.00473479 -0.157718 -0.182225 0.00517389 -0.15796 
-0.217213 0.0047442 -0.154272 -0.166771 0.00514652 -0.15486 -0.244374 0.0047593 -0.147162 
-0.224885 0.00477561 -0.147752 -0.234421 0.00480449 -0.14456 -0.211207 0.00511635 -0.140841 
-0.163204 0.00474798 -0.14317 -0.243527 0.00517423 -0.137043 -0.227055 0.00505998 -0.137765 
-0.187342 0.00482167 -0.13415 -0.234961 0.00483635 -0.128733 -0.222073 0.00510869 -0.12897 
-0.212135 0.00479211 -0.130812 -0.178031 0.00477642 -0.130424 -0.159817 0.00478147 -0.130643 
-0.245 0.00478205 -0.126861 -0.228118 0.00474858 -0.120947 -0.196413 0.00489049 -0.126352 
-0.18643 0.00475228 -0.122562 -0.238407 0.00509302 -0.119299 -0.219084 0.00476424 -0.115719 
-0.208208 0.00475866 -0.118945 -0.173481 0.005093 -0.120082 -0.163456 0.00485466 -0.118528 
-0.245 0.00474951 -0.111465 -0.210822 0.00511222 -0.10927 -0.229941 0.0047453 -0.106575 
-0.181629 0.00518089 -0.107364 -0.165595 0.00507679 -0.108723 -0.245 0.00473327 -0.100048 
-0.201352 0.00476783 -0.101683 -0.191016 0.00513528 -0.101973 -0.172565 0.00510446 -0.100678 
-0.223576 0.00475117 -0.0963586 -0.182138 0.00477857 -0.0964371 -0.189902 0.00474967 -0.0888748 
-0.210918 0.00489763 -0.0663378 -0.24388 0.00475179 -0.0520022 -0.161276 0.00477573 -0.0541654 
-0.245 0.00512809 -0.0289429 -0.183358 0.00510172 -0.00757539 -0.19689 0.00507074 0.00744399 
-0.231129 0.00477443 0.214337 -0.213065 0.00509877 0.213838 -0.222494 0.00477141 0.227679 
-0.245 0.00482956 0.233756 -0.243283 0.00510322 0.245 -0.2298 0.0047511 0.243567 
-0.143649 0.0048378 -0.244805 -0.133483 0.00511815 -0.245 -0.122696 0.00509487 -0.244813 
-0.052759 0.00506053 -0.245 -0.129707 0.00476202 -0.232748 -0.137525 0.00479597 -0.226333 
-0.0945406 0.00477536 -0.219998 -0.15068 0.00474319 -0.212974 -0.13841 0.00479423 -0.215998 
-0.0836447 0.00474897 -0.211155 -0.108435 0.00475276 -0.189473 -0.0986651 0.00476396 -0.191829 
-0.0816488 0.004753 -0.192988 -0.154522 0.00474704 -0.18308 -0.117627 0.00509474 -0.173385 
-0.152613 0.00517751 -0.166043 -0.112572 0.00508796 -0.164518 -0.0960724 0.00478031 -0.167583 
-0.0667538 0.00475964 -0.165089 -0.101407 0.00509586 -0.158978 -0.117948 0.00509664 -0.155858 
-0.148552 0.00478886 -0.145284 -0.11513 0.00509337 -0.146017 -0.0557509 0.00520512 -0.147684 
-0.139693 0.00491424 -0.128314 -0.102188 0.00475515 -0.128214 -0.150695 0.00478561 -0.124087 
-0.134883 0.00509818 -0.117817 -0.111165 0.00512848 -0.119204 -0.0941498 0.0048013 -0.118356 
-0.14826 0.00475923 -0.114071 -0.123392 0.00485647 -0.112923 -0.0545414 0.00475115 -0.111292 
-0.155687 0.00475455 -0.10736 -0.135998 0.00507549 -0.0974489 -0.125191 0.00474385 -0.0983612 
-0.154495 0.00478112 -0.0960173 -0.0706722 0.00477645 -0.0623462 -0.120664 0.00477469 -0.012651 
-0.0942039 0.00475236 0.0198722 -0.0725157 0.00488316 0.0596762 -0.0775514 0.00513223 0.149629 
-0.116321 0.00485043 0.173581 -0.0620392 0.00482715 0.235286 -0.101082 0.00509703 0.24001 
-0.0318063 0.00493777 -0.24368 -0.0406828 0.00483321 -0.23907 9.00375e-05 0.00507048 -0.21924 
-0.0195697 0.00509477 -0.200478 -0.017811 0.00475674 -0.159359 0.00112963 0.00476876 -0.161845 
0.0187941 0.00477819 -0.138601 -0.0308196 0.00510998 -0.0719582 -0.00263539 0.00509974 -0.0566958 
-0.0473388 0.00513469 -0.052113 -0.0199471 0.00475336 0.0646953 0.00755994 0.00480689 0.0693798 
-0.00795514 0.00509418 0.15962 -0.0310149 0.00506749 0.179342 -0.0077722 0.00511014 0.195876 
-0.050617 0.00478877 0.24467 -0.0120978 0.00477986 0.245 0.0659571 0.00510098 -0.234852 
0.103488 0.0047768 -0.136074 0.097804 0.00475573 -0.12761 0.067063 0.00475241 -0.0938197 
0.105734 0.00477379 -0.0962637 0.145299 0.00475102 -0.066082 0.0918757 0.00511023 -0.0706528 
0.0818729 0.00509604 0.0100698 0.136351 0.00512049 0.0160784 0.0919888 0.00509854 0.0520556 
0.0721034 0.00509683 0.10185 0.0638441 0.00481783 0.109867 0.0948014 0.00479646 0.192819 
0.132137 0.00482818 0.20373 0.126464 0.00518417 0.214936 0.132023 0.00476372 0.223521 
0.117817 0.0048688 0.243796 0.234264 0.00511496 -0.245 0.244184 0.00481965 -0.243724 
0.212691 0.0048695 -0.237587 0.232489 0.00484909 -0.234619 0.244988 0.00520948 -0.232472 
0.242515 0.00509851 -0.222781 0.229725 0.00510142 -0.214565 0.244583 0.00509508 -0.212265 
0.20257 0.00476247 -0.201417 0.221827 0.00477615 -0.202072 0.231845 0.00481779 -0.200341 
0.21774 0.00475651 -0.192883 0.245 0.00512216 -0.162809 0.176049 0.00483526 -0.146701 
0.177088 0.00491349 -0.128284 0.245 0.00509939 -0.120832 0.229303 0.00509569 -0.117586 
0.244998 0.00476071 -0.105801 0.244795 0.00476947 -0.0957932 0.23802 0.00476846 -0.086972 
0.245 0.0048078 -0.0781105 0.228054 0.00475599 -0.0612118 0.212426 0.00484671 -0.0590555 
0.222991 0.00514388 -0.0462601 0.245 0.00483635 -0.0461712 0.230386 0.00486871 -0.0374805 
0.210816 0.0048223 -0.0306776 0.221332 0.00479774 -0.0324624 0.243551 0.00483679 -0.0333954 
0.245 0.00507749 -0.0220829 0.22247 0.00476292 -0.0132627 0.245 0.00475689 -0.000235122 
0.156451 0.00478198 -0.096423 0.190211 0.00504643 0.00204863 0.245 0.00507266 0.0232778 
0.242382 0.00474665 0.0342661 0.217994 0.00483696 0.0688258 0.217277 0.00480545 0.0813777 
0.229164 0.00475528 0.0901293 0.245 0.0051907 0.114781 0.235957 0.00475213 0.121926 
0.161828 0.00507489 0.182908 0.19389 0.00509338 0.229311 0.245 0.00475133 0.245 

VERTICES 207 414
1 0 
1 1 
1 2 
1 3 
1 4 
1 5 
1 6 
1 7 
1 8 
1 9 
1 10 
1 11 
1 12 
1 13 
1 14 
1 15 
1 16 
1 17 
1 18 
1 19 
1 20 
1 21 
1 22 
1 23 
1 24 
1 25 
1 26 
1 27 
1 28 
1 29 
1 30 
1 31 
1 32 
1 33 
1 34 
1 35 
1 36 
1 37 
1 38 
1 39 
1 40 
1 41 
1 42 
1 43 
1 44 
1 45 
1 46 
1 47 
1 48 
1 49 
1 50 
1 51 
1 52 
1 53 
1 54 
1 55 
1 56 
1 57 
1 58 
1 59 
1 60 
1 61 
1 62 
1 63 
1 64 
1 65 
1 66 
1 67 
1 68 
1 69 
1 70 
1 71 
1 72 
1 73 
1 74 
1 75 
1 76 
1 77 
1 78 
1 79 
1 80 
1 81 
1 82 
1 83 
1 84 
1 85 
1 86 
1 87 
1 88 
1 89 
1 90 
1 91 
1 92 
1 93 
1 94 
1 95 
1 96 
1 97 
1 98 
1 99 
1 100 
1 101 
1 102 
1 103 
1 104 
1 105 
1 106 
1 107 
1 108 
1 109 
1 110 
1 111 
1 112 
1 113 
1 114 
1 115 
1 116 
1 117 
1 118 
1 119 
1 120 
1 121 
1 122 
1 123 
1 124 
1 125 
1 126 
1 127 
1 128 
1 129 
1 130 
1 131 
1 132 
1 133 
1 134 
1 135 
1 136 
1 137 
1 138 
1 139 
1 140 
1 141 
1 142 
1 143 
1 144 
1 145 
1 146 
1 147 
1 148 
1 149 
1 150 
1 151 
1 152 
1 153 
1 154 
1 155 
1 156 
1 157 
1 158 
1 159 
1 160 
1 161 
1 162 
1 163 
1 164 
1 165 
1 166 
1 167 
1 168 
1 169 
1 170 
1 171 
1 172 
1 173 
1 174 
1 175 
1 176 
1 177 
1 178 
1 179 
1 180 
1 181 
1 182 
1 183 
1 184 
1 185 
1 186 
1 187 
1 188 
1 189 
1 190 
1 191 
1 192 
1 193 
1 194 
1 195 
1 196 
1 197 
1 198 
1 199 
1 200 
1 201 
1 202 
1 203 
1 204 
1 205 
1 206 

POINT_DATA 207
FIELD FieldData 3
id 1 207 int
131 2346 5794 1013 1957 5883 7911 6741 2186 
1984 6357 3538 3028 1269 1458 488 371 17 
3392 1027 603 208 1247 563 1304 1011 4783 
1048 1064 95 5831 3003 1949 47 2804 4135 
2338 3760 3738 921 7074 4561 889 6484 3566 
3629 1118 2507 6159 2301 3365 618 2428 1820 
1869 8326 2361 5380 3374 2100 3282 92 3192 
4830 6454 1836 2371 2533 2171 6133 7017 1154 
4268 4486 3628 986 258 1047 1834 6251 4502 
2078 4648 553 6347 8119 575 180 1478 3341 
1172 4546 2373 1214 8483 1368 5001 187 2869 
3674 1383 4136 2221 1439 8287 1555 288 3043 
1217 378 396 4951 2623 262 2494 1930 1248 
97 755 4362 1496 4504 7899 5126 787 8696 
2559 1444 3327 3270 5244 2449 1621 2118 3021 
1503 3400 7100 2053 2195 7842 5088 809 7815 
249 1545 1785 4273 2748 498 3539 56 1124 
930 1833 692 1874 1356 764 3472 4356 1379 
1320 5920 4496 239 5071 1686 1625 4318 2230 
515 1180 456 2606 8673 1859 264 4482 2151 
1585 7818 1483 386 662 4317 1577 1793 88 
791 305 3147 1146 945 2063 6239 4661 1817 
2152 7117 2319 2917 4478 113 1838 1142 814 

type 1 207 int
1 1 1 1 1 1 1 1 1 
1 1 1 1 1 1 1 1 1 
1 1 1 1 1 1 1 1 1 
1 1 1 1 1 1 1 1 1 
1 1 1 1 1 1 1 1 1 
1 1 1 1 1 1 1 1 1 
1 1 1 1 1 1 1 1 1 
1 1 1 1 1 1 1 1 1 
1 1 1 1 1 1 1 1 1 
1 1 1 1 1 1 1 1 1 
1 1 1 1 1 1 1 1 1 
1 1 1 1 1 1 1 1 1 
1 1 1 1 1 1 1 1 1 
1 1 1 1 1 1 1 1 1 
1 1 1 1 1 1 1 1 1 
1 1 1 1 1 1 1 1 1 
1 1 1 1 1 1 1 1 1 
1 1 1 1 1 1 1 1 1 
1 1 1 1 1 1 1 1 1 
1 1 1 1 1 1 1 1 1 
1 1 1 1 1 1 1 1 1 
1 1 1 1 1 1 1 1 1 
1 1 1 1 1 1 1 1 1 

radius 1 207 double
0.005 0.005 0.005 0.005 0.005 0.005 0.005 0.005 0.005 
0.005 0.005 0.005 0.005 0.005 0.005 0.005 0.005 0.005 
0.005 0.005 0.005 0.005 0.005 0.005 0.005 0.005 0.005 
0.005 0.005 0.005 0.005 0.005 0.005 0.005 0.005 0.005 
0.005 0.005 0.005 0.005 0.005 0.005 0.005 0.005 0.005 
0.005 0.005 0.005 0.005 0.005 0.005 0.005 0.005 0.005 
0.005 0.005 0.005 0.005 0.005 0.005 0.005 0.005 0.005 
0.005 0.005 0.005 0.005 0.005 0.005 0.005 0.005 0.005 
0.005 0.005 0.005 0.005 0.005 0.005 0.005 0.005 0.005 
0.005 0.005 0.005 0.005 0.005 0.005 0.005 0.005 0.005 
0.005 0.005 0.005 0.005 0.005 0.005 0.005 0.005 0.005 
0.005 0.005 0.005 0.005 0.005 0.005 0.005 0.005 0.005 
0.005 0.005 0.005 0.005 0.005 0.005 0.005 0.005 0.005 
0.005 0.005 0.005 0.005 0.005 0.005 0.005 0.005 0.005 
0.005 0.005 0.005 0.005 0.005 0.005 0.005 0.005 0.005 
0.005 0.005 0.005 0.005 0.005 0.005 0.005 0.005 0.005 
0.005 0.005 0.005 0.005 0.005 0.005 0.005 0.005 0.005 
0.005 0.005 0.005 0.005 0.005 0.005 0.005 0.005 0.005 
0.005 0.005 0.005 0.005 0.005 0.005 0.005 0.005 0.005 
0.005 0.005 0.005 0.005 0.005 0.005 0.005 0.005 0.005 
0.005 0.005 0.005 0.005 0.005 0.005 0.005 0.005 0.005 
0.005 0.005 0.005 0.005 0.005 0.005 0.005 0.005 0.005 
0.005 0.005 0.005 0.005 0.005 0.005 0.005 0.005 0.005 

