# vtk DataFile Version 4.0
Generated by LIGGGHTS
ASCII
DATASET POLYDATA
POINTS 4227 float
-0.23396 -0.000206489 -0.244969 -0.197032 0.013966 -0.24489 -0.186276 0.00957761 -0.245001 
-0.173856 0.00728731 -0.244048 -0.162223 0.00845959 -0.244938 -0.150645 0.0107067 -0.244404 
-0.137401 0.00353851 -0.244941 -0.244666 0.00708357 -0.24491 -0.215504 0.00913489 -0.244854 
-0.232729 0.0108275 -0.0676294 -0.217184 0.0123034 -0.205342 -0.225971 0.0102634 -0.235785 
-0.181821 0.00429303 -0.237596 -0.149605 0.00956334 -0.170019 -0.23724 0.00894649 -0.238166 
-0.214484 0.00529973 -0.235137 -0.192555 0.011442 -0.235895 -0.157949 0.00534715 -0.229286 
-0.14847 0.00910629 -0.234751 -0.130222 0.00485242 -0.0860664 -0.223521 0.0112276 -0.071744 
-0.167763 0.0103718 -0.236148 -0.207488 0.0143795 -0.133628 -0.140027 0.0142564 -0.236257 
-0.244942 0.00823793 -0.231568 -0.235656 0.00901269 -0.227488 -0.199055 0.00833965 -0.228502 
-0.190186 0.000400569 -0.221769 -0.179533 0.00878835 -0.220936 -0.166221 0.0057328 -0.22323 
-0.135262 0.00987758 -0.226053 -0.235203 0.0117344 -0.0189033 -0.145191 0.00774798 -0.225036 
-0.141612 0.0119604 -0.074236 -0.221885 0.00396162 -0.225727 -0.212443 0.00758765 -0.222893 
-0.152417 0.00303395 -0.216931 -0.177124 0.014682 -0.0424782 -0.204054 0.0102827 -0.00674547 
-0.24351 0.0117196 -0.0537029 -0.202499 0.0141478 -0.090374 -0.162127 0.0127212 -0.216337 
-0.19955 0.0140335 -0.0686281 -0.244623 0.00995877 -0.213718 -0.234699 0.00985123 -0.216986 
-0.217617 0.00542188 -0.213509 -0.198538 0.00550233 -0.217029 -0.171821 0.00502571 -0.213279 
-0.135079 0.0106976 -0.215645 -0.143008 0.00278021 -0.0036293 -0.226158 0.0141003 -0.212283 
-0.18931 0.0098244 -0.215956 -0.150458 0.0149552 -0.213416 -0.139795 0.0130355 -0.0644571 
-0.207647 0.00597128 -0.212885 -0.146344 0.00283052 -0.207674 -0.165815 0.0098407 -0.202688 
-0.157885 0.0079513 -0.208516 -0.236545 0.00927214 -0.203179 -0.226486 0.00884098 -0.20353 
-0.19857 0.00235219 -0.206908 -0.179974 0.0080912 -0.204351 -0.133645 0.00640351 -0.205169 
-0.237474 0.0052325 -0.0114382 -0.135361 0.00510992 -0.0131721 -0.203779 0.00746614 -0.200047 
-0.152069 0.0072083 -0.200351 -0.244965 0.0105627 -0.197174 -0.212008 0.00284842 -0.196036 
-0.186195 0.0042343 -0.196478 -0.13656 0.000266829 -0.190353 -0.217466 0.0142783 -0.00324183 
-0.194468 0.01301 -0.194075 -0.147547 0.0120485 -0.0220626 -0.167886 0.0132934 -0.193305 
-0.141912 0.00509081 -0.197859 -0.238395 0.00681885 -0.188767 -0.229595 0.00476051 -0.193862 
-0.21875 -0.000184922 -0.188849 -0.202789 0.00955419 -0.189342 -0.176479 0.00791659 -0.194839 
-0.157714 0.0106113 -0.192715 -0.148369 0.0083179 -0.189204 -0.228673 0.0115197 -0.0948522 
-0.130622 0.010939 -0.235061 -0.202649 0.000374011 -0.174117 -0.136716 -0.000287048 -0.180369 
-0.245003 0.0122568 -0.178558 -0.185903 0.0112061 -0.188888 -0.181399 0.00252488 -0.183277 
-0.131838 0.00895339 -0.182106 -0.236667 0.00655776 -0.176047 -0.228175 0.00878898 -0.180861 
-0.190784 0.00431736 -0.179447 -0.164256 0.00848758 -0.174412 -0.151202 0.0137967 -0.0767388 
-0.132169 0.00501173 -0.0301379 -0.144235 0.0126116 -0.00499747 -0.205573 0.0114072 -0.239795 
-0.155624 0.00572995 -0.181044 -0.146305 0.0031751 -0.17783 -0.244853 0.00470733 -0.168989 
-0.15198 -0.000227155 -0.169765 -0.139132 0.00548432 -0.171161 -0.227481 0.00566707 -0.170086 
-0.177793 0.00308375 -0.173303 -0.235718 0.0049903 -0.163541 -0.222353 0.0103472 -0.162475 
-0.211151 0.0126922 -0.169367 -0.200383 0.00767701 -0.167527 -0.187937 0.0118287 -0.167002 
-0.174402 0.00929244 -0.163684 -0.215373 0.0144701 -0.105762 -0.145522 0.00365097 -0.0149395 
-0.181912 0.0092269 -0.155711 -0.244482 0.0125172 -0.15918 -0.22895 0.0126975 -0.154989 
-0.154109 0.0115474 -0.222349 -0.19486 0.00693688 -0.154871 -0.139762 0.0071843 -0.161254 
-0.237988 0.00891754 -0.152342 -0.206212 0.00365843 -0.160154 -0.157702 0.00744356 -0.152895 
-0.142092 0.00772954 -0.151542 -0.131975 0.00711984 -0.152474 -0.221926 0.0124983 -0.0606173 
-0.166451 0.0107933 -0.15727 -0.225955 0.00969154 -0.145856 -0.215306 0.0124516 -0.148328 
-0.21375 0.012157 -0.0885142 -0.177713 0.0111971 -0.14659 -0.166661 0.0116023 -0.147115 
-0.24469 0.00640556 -0.144911 -0.244995 0.0097823 -0.0208462 -0.14995 0.0106617 -0.146098 
-0.175149 0.00359886 -0.00850822 -0.244957 0.00236744 -0.135223 -0.20805 0.00195438 -0.142295 
-0.198099 0.00713829 -0.141142 -0.186811 0.0131949 -0.142169 -0.156641 0.00367967 -0.143555 
-0.139089 0.00658825 -0.142061 -0.236764 0.000915433 -0.141017 -0.244842 0.0146743 -0.103539 
-0.179732 0.00624823 -0.137298 -0.141445 0.0110574 -0.133195 -0.230619 0.00654518 -0.135347 
-0.220698 0.00763861 -0.136703 -0.16845 0.0078686 -0.137067 -0.207817 0.0116119 -0.0514374 
-0.188897 0.00375422 -0.132735 -0.189731 0.010308 -0.203858 -0.18555 0.00897843 -0.00615761 
-0.238262 0.0129202 -0.130526 -0.2258 0.00681632 -0.126536 -0.203062 0.00485004 -0.132603 
-0.175606 0.0041799 -0.128036 -0.159211 0.00679231 -0.133335 -0.148661 0.00334643 -0.131848 
-0.134506 0.00382057 -0.132641 -0.167313 0.0102535 -0.0136311 -0.156031 0.00695127 -0.0187876 
-0.221803 0.0026613 -0.000714184 -0.225999 0.0145765 -0.120178 -0.214215 0.00367695 -0.12704 
-0.185195 0.00585794 -0.121499 -0.143216 0.00691887 -0.121178 -0.202699 0.0135791 -0.124674 
-0.1961 0.00261671 -0.12566 -0.165391 0.00989783 -0.124266 -0.192649 0.0138924 -0.039472 
-0.187028 0.013011 -0.0159874 -0.200035 0.00782893 -0.116787 -0.158196 0.0112304 -0.117431 
-0.147458 0.0121996 -0.109111 -0.132904 0.00665598 -0.118071 -0.171915 0.0101619 -0.11619 
-0.21338 0.013245 -0.158662 -0.244641 0.0100227 -0.115355 -0.226028 0.0057112 -0.111496 
-0.181313 0.0113401 -0.112907 -0.137672 0.0075854 -0.108873 -0.215798 0.00156339 -0.116991 
-0.207854 0.00385947 -0.109192 -0.191451 0.0131595 -0.114776 -0.244914 0.0147305 -0.0731226 
-0.235509 0.00889661 -0.111397 -0.220264 0.00546862 -0.102886 -0.192126 0.00959576 -0.105283 
-0.179255 0.0102569 -0.102995 -0.159464 0.0108993 -0.107197 -0.208456 0.0139289 -0.229843 
-0.203105 0.0100606 -0.0174893 -0.244974 0.00234202 -0.102545 -0.20947 0.00698126 -0.0959245 
-0.166545 0.00890658 -0.100408 -0.142109 0.0136416 -0.0978492 -0.235577 0.00642406 -0.100962 
-0.201301 0.00814455 -0.101577 -0.156873 0.0084596 -0.0977269 -0.194578 0.00942527 -0.0942449 
-0.173903 0.0104052 -0.093693 -0.163931 0.0104373 -0.0908854 -0.149941 0.00982331 -0.0906101 
-0.139677 0.00903799 -0.0889516 -0.210694 0.0131479 -0.0701933 -0.132315 0.0116034 -0.0966369 
-0.235135 0.00653804 -0.0872043 -0.216096 0.00124633 -0.0868225 -0.199353 0.0062637 -0.0849888 
-0.184457 0.00108868 -0.0835421 -0.132521 0.0121146 -0.166076 -0.190045 0.0121662 -0.0851035 
-0.139599 0.00479928 -0.0231998 -0.174365 0.00392673 -0.0808194 -0.138019 0.00437275 -0.0797505 
-0.244229 0.00638732 -0.092817 -0.185939 0.0128315 -0.228487 -0.224939 0.00654593 -0.0870188 
-0.207453 0.0101036 -0.0791395 -0.157683 0.00835783 -0.0833677 -0.147888 0.00161873 -0.0817734 
-0.244979 0.00235427 -0.0806376 -0.236223 0.0120591 -0.0773567 -0.225513 0.00226555 -0.0779788 
-0.212982 0.00140632 -0.0750614 -0.203918 0.00348858 -0.0709253 -0.19514 0.00997212 -0.0766961 
-0.164829 0.0025925 -0.0768947 -0.14364 0.00225973 -0.0698489 -0.228517 0.0128263 -0.0518537 
-0.186738 0.0104513 -0.0712144 -0.154253 0.00229036 -0.0739825 -0.132639 0.00090524 -0.0700714 
-0.176455 0.0103714 -0.230642 -0.22351 0.0102202 -0.0175582 -0.163403 0.00415699 -0.00573528 
-0.192935 0.00248631 -0.0594883 -0.170606 0.0119185 -0.0688733 -0.161096 0.00832138 -0.0693405 
-0.245 0.0064034 -0.0649778 -0.225616 0.000911396 -0.0678587 -0.214691 0.00392955 -0.06542 
-0.206629 0.00868061 -0.0618205 -0.16655 0.000638151 -0.060969 -0.143389 0.00510834 -0.0588157 
-0.212049 0.00553897 -0.0017477 -0.152272 0.00703358 -0.0647887 -0.232221 0.00569476 -0.0579674 
-0.221709 0.00164906 -0.0586707 -0.211777 0.00170192 -0.0551518 -0.200782 0.00469872 -0.0536364 
-0.182498 0.010878 -0.0618184 -0.161319 0.0114617 -0.0593115 -0.132392 0.0096875 -0.0586168 
-0.197246 0.0123762 -0.0590006 -0.174068 0.0124201 -0.174535 -0.219568 -0.000237261 -0.0489976 
-0.186502 0.00712005 -0.0534047 -0.176952 0.0102067 -0.0533037 -0.180092 0.0130081 -0.0857222 
-0.157001 0.00728032 -0.0512292 -0.138648 0.0111559 -0.0509476 -0.140935 0.0136449 -0.0144114 
-0.194819 0.00939541 -0.0106039 -0.227935 0.00713735 -0.00734905 -0.13087 0.0124196 -0.144062 
-0.238408 0.0100079 -0.0450937 -0.20626 -0.000136027 -0.044862 -0.14796 0.00691669 -0.04651 
-0.17369 0.0104732 -0.184357 -0.229726 0.00431868 -0.0455786 -0.214571 0.00429251 -0.0411319 
-0.197602 0.0038843 -0.0405451 -0.184066 0.00754661 -0.0435002 -0.13657 0.00613372 -0.0404854 
-0.243882 0.0133559 -0.00948273 -0.223564 0.00824782 -0.0386657 -0.169667 0.00798539 -0.0428447 
-0.213046 0.0125279 -0.0121577 -0.152408 0.00465391 -0.00732469 -0.234692 0.0120032 -0.0358388 
-0.149663 0.00552687 -0.0366916 -0.14144 0.0124996 -0.208131 -0.219962 0.0104488 -0.029049 
-0.210688 0.00629734 -0.0310717 -0.191891 0.00778789 -0.031383 -0.178883 0.00602305 -0.0320984 
-0.159948 0.00923585 -0.0406354 -0.165273 0.0125807 -0.0774757 -0.229937 0.00965879 -0.0272815 
-0.201444 0.00775693 -0.0273723 -0.184903 0.0073809 -0.0241631 -0.168788 0.00748097 -0.0275713 
-0.158201 0.0103693 -0.0279615 -0.242577 0.00184696 -0.0275595 -0.176504 0.00588069 -0.0187407 
-0.150088 0.00331465 -0.0269259 -0.212495 0.0094168 -0.0216615 -0.203047 0.0138068 -0.221138 
-0.228023 0.013062 -0.104784 -0.218253 0.0108398 -0.0479924 -0.189478 0.0139513 -0.125811 
-0.183813 0.0132025 -0.178614 -0.151204 0.0135258 -0.157925 -0.135162 0.0146744 -0.244993 
-0.217134 0.0136493 -0.079122 -0.193893 0.0137306 -0.0495722 -0.17164 0.0149146 -0.219136 
-0.150265 0.0147936 -0.136587 -0.233879 0.00430989 0.00084625 -0.201012 0.00926998 0.00270968 
-0.170574 0.00124833 0.0016304 -0.155247 0.00603182 0.00502951 -0.130075 0.0065713 0.0266487 
-0.169569 0.0131449 0.00861551 -0.241988 0.00578287 0.0133389 -0.21602 0.0095012 0.00709441 
[...]
POINT_DATA 4227
FIELD FieldData 3
id 1 4227 int
3492 2638 1317 871 99 2208 525 3930 3065 
1343 3927 5 1337 2636 1341 1786 3483 3898 
1477 1013 1360 1750 901 484 3034 3472 3486 
3543 451 3460 919 3929 2693 1790 445 39 
3190 3510 1371 1346 1856 12 74 471 2184 
876 3029 1344 1325 3215 487 3950 453 2309 
586 1483 3074 3056 2597 3063 2628 3187 1366 
878 1904 1757 177 3926 3053 3484 4047 1316 
1761 3643 3025 492 450 1797 62 1350 8 
3624 3946 2314 3022 2625 3059 3055 15 47 
576 3057 1345 3061 2736 2334 182 3095 474 
1921 606 2207 1778 1791 464 3079 3112 162 
1420 2601 36 3545 602 2299 2632 3465 1348 
3489 40 1363 468 2263 2212 1915 2631 3189 
2641 2199 3461 899 2256 488 3938 3919 3163 
1054 63 1837 1467 1923 907 3134 2177 898 
1338 2339 1310 466 926 3050 1406 2217 2336 
54 2634 10 1775 1793 2621 6 3903 902 
2652 2623 1355 1801 2201 2607 1906 3068 3899 
3949 1362 1788 3130 2305 2764 4034 2220 2644 
3037 52 2195 3071 2752 3459 2602 3894 3893 
3482 2732 3922 1759 1357 3 1849 1 913 
1781 1358 877 2183 1019 924 3490 35 3159 
3532 1751 2755 3630 3128 3544 1365 1911 2198 
900 538 1838 1753 996 961 2646 3076 3030 
1900 966 3506 3932 55 1898 1795 2196 2321 
2218 9 3635 1351 3120 2295 3982 3491 2181 
1416 1950 2756 889 4 1408 3028 3026 3992 
1340 2648 1912 483 53 3947 2643 3542 510 
2699 875 70 2664 3044 2694 1361 452 2223 
2176 2645 473 493 869 1510 933 3078 2620 
3054 1330 41 220 1014 951 467 1333 883 
169 1784 3940 3032 2236 3923 3147 2635 634 
3897 38 2182 1798 3108 1349 904 2312 3494 
46 3047 1476 4050 3975 3236 1393 1908 4009 
206 77 923 516 512 3158 942 937 51 
4111 24 2 3041 2723 548 3202 3529 3229 
2617 4073 1470 519 2204 3928 3980 2191 3480 
1397 3148 3516 1379 1516 2670 3146 2190 3971 
3520 1069 3917 953 625 653 3097 42 896 
1947 193 1821 3968 3524 2194 1826 17 211 
185 1060 3537 88 92 3918 620 887 33 
1389 2378 3579 2637 1381 91 4104 2239 1383 
2225 1386 496 2611 882 470 3973 1934 60 
2248 3907 4094 2235 3228 3513 86 1475 84 
1394 947 2374 2363 18 2653 459 3955 3645 
2243 3952 1501 187 66 3962 1878 2254 888 
449 1326 2612 1951 463 950 948 1373 3979 
1335 1078 892 1087 1376 515 886 2349 2675 
2669 2668 571 3087 2253 1061 2654 3981 1938 
4074 1807 217 2240 2677 2615 3099 3970 2232 
1370 2229 1820 2663 1819 2244 1367 1328 3230 
561 944 4091 3048 1830 3527 1378 1823 3141 
3910 1382 2241 4026 2665 194 2614 1764 3517 
2678 929 3101 3666 628 130 1336 1811 3533 
3536 3091 1816 1327 1862 3478 4017 21 2660 
2724 3475 509 559 520 1063 940 3538 3657 
507 954 1500 518 3098 2281 1390 3110 3100 
2186 1334 1429 1051 213 2188 2791 3083 94 
2768 930 3109 3523 1771 1767 494 3528 1810 
2769 884 2708 458 638 1962 3080 3967 1769 
514 3539 1772 3959 1928 1520 2674 3103 3525 
79 932 3045 1396 1817 3090 3094 3476 27 
1808 1423 216 1388 523 1815 2228 567 2613 
3964 2673 1071 1770 955 1372 4097 3953 3046 
75 219 72 3092 69 3569 1766 3474 68 
939 3915 3913 952 2227 1824 85 199 3995 
71 1329 513 3213 495 2224 457 2179 1380 
3144 1422 476 2758 3502 4066 3958 7 1003 
13 1755 3925 1354 3551 96 4057 917 2209 
3038 2698 1777 608 2185 3035 2202 879 880 
3024 454 3466 3892 1313 1356 2325 3464 2640 
489 2197 531 154 3495 481 4004 3951 486 
2216 590 181 2746 925 1842 3177 868 3905 
535 475 22 1031 2328 3902 2277 546 921 
58 1353 465 2178 1010 2629 2221 3504 37 
1312 910 3469 906 3631 3896 491 3471 1321 
16 3603 1512 908 448 2200 1779 479 3070 
3051 915 1762 59 1375 4030 1924 1796 2622 
3463 1359 2649 1032 1322 3487 3115 1413 3033 
3503 881 909 89 1022 2598 905 3628 3931 
2639 3049 3196 3036 49 872 1787 485 1411 
914 922 1352 2600 67 4053 2211 3944 581 
3521 2627 176 1347 3508 3935 142 1401 3468 
2379 2210 444 50 2624 873 2599 3924 1332 
3943 1320 1619 2219 594 1794 2679 3031 490 
2642 446 1311 1342 2205 11 3994 44 462 
1774 2215 3086 1865 874 1800 498 2604 1044 
3069 1752 3908 3064 3182 1783 1339 4082 2766 
3485 1758 4033 3511 2341 596 3180 3936 912 
1756 45 3195 1792 1479 911 2606 1883 3467 
2333 2251 480 477 2180 1809 1318 3561 2353 
1930 890 3479 3904 2650 4071 1443 218 1813 
1074 931 3106 2804 2667 23 3522 3978 511 
3470 2203 3512 3912 508 2234 1874 4015 3093 
938 4083 2672 190 2655 34 3477 1833 2192 
3671 916 2676 3493 935 3969 43 3914 1528 
4106 1776 1331 4013 3043 3644 3530 1385 3570 
1937 3963 501 2809 1763 1814 25 126 1822 
4024 3039 3145 215 2661 30 225 3961 2233 
2242 956 2291 461 895 28 1812 3518 1828 
949 521 29 3111 506 3082 3481 3104 3107 
499 2609 1827 2626 984 2666 4077 4084 1377 
1392 2783 1768 1879 2231 1514 1374 456 3966 
2633 128 3531 2189 2610 893 1871 3976 95 
3916 991 2707 3515 891 934 1395 3972 503 
3960 927 3921 1062 2342 3578 2657 2722 4076 
2238 2383 3957 227 1384 2230 894 2658 3540 
1391 3534 2608 3085 3535 3708 76 945 4080 
643 2252 90 460 2293 1785 3911 3965 3052 
3081 2656 224 64 32 2651 2193 3084 3088 
19 1511 505 2250 3153 500 3906 3473 1324 
48 4000 3599 601 2012 604 149 3604 3166 
129 3164 1026 2728 2762 3557 2271 2042 3988 
3627 155 1461 469 482 1854 3987 158 529 
3598 3127 3676 1009 1016 3760 1035 3942 1403 
2738 447 2329 3067 1922 2680 2682 1448 3891 
2687 1109 3547 2691 1023 4041 3188 3560 3552 
2301 1040 3728 2733 599 150 3496 1012 3616 
1412 112 978 1754 614 3606 1445 2462 3639 
3761 4058 2603 573 2270 3622 163 1021 3998 
4070 2760 1907 574 3298 967 1848 161 1894 
3692 3937 1789 2259 962 2327 2688 183 1038 
1398 2757 1037 1896 2697 4187 885 3623 714 
2806 3077 3075 4173 3300 1995 3171 3895 977 
1913 4002 2275 1462 527 4205 2311 3113 3125 
2316 156 589 4029 2269 973 588 3173 957 
968 761 600 3602 4067 3302 1464 3554 1888 
108 1592 4043 2686 1839 2803 2206 2387 2690 
528 4031 4039 4190 1858 3592 109 2696 3132 
105 2761 1909 3596 3548 4003 1030 1891 3131 
145 738 1446 1988 1314 592 2266 1484 1024 
1018 1850 2753 603 2272 2307 2320 1041 3310 
3939 3181 605 101 295 2701 4038 618 3121 
595 167 575 2700 1579 1004 545 1843 2734 
3558 3174 2695 2684 969 3555 1466 1765 1482 
3615 2725 532 1887 543 2268 541 3185 116 
903 3625 4061 1852 4042 4172 587 2213 2274 
1409 539 2260 542 2889 1472 2685 3608 1058 
3553 4051 1430 3984 3559 1867 1043 103 1905 
2351 2771 1851 2023 3168 3985 2276 555 2398 
3611 1450 584 1036 1857 1029 1451 3595 613 
3170 1637 3308 1449 1039 3686 3160 1453 1884 
3607 82 3612 1006 2702 2308 2731 2367 572 
1085 963 191 1097 1901 2742 1399 1437 2822 
337 976 3058 2763 745 110 4055 198 1454 
147 3114 3690 1034 3733 3614 1917 533 184 
4078 1400 175 1749 3688 196 3167 3233 974 
3556 3217 4036 3993 170 639 970 740 2264 
1845 1853 1840 2403 61 173 4064 3124 2343 
1841 4007 4158 3983 2730 960 2084 2754 4045 
578 1885 4006 3567 3258 2890 3220 1499 3212 
3218 80 1957 2922 3192 975 4087 4025 4107 
1048 195 3574 1864 1052 522 2740 3209 3105 
3364 223 1525 2786 4040 2505 4198 2630 1944 
2354 2292 3649 3594 1565 4132 4215 4090 222 
1889 3219 327 1916 4014 2939 4102 2382 209 
123 315 3207 4223 2369 2282 560 3587 2366 
3716 3784 2916 2706 1179 1573 342 1067 630 
4008 3333 965 3222 4027 1991 636 635 565 
122 980 1935 3658 3235 517 2802 3138 3711 
136 3673 1868 4150 4016 1522 2503 100 3137 
2050 2481 551 549 3655 1080 2717 1926 3791 
4020 943 570 1804 2288 1942 2352 3663 1506 
646 4216 2485 2355 2294 3519 3641 2721 2781 
3571 1081 3582 140 2718 4010 4079 121 2788 
3223 1945 1047 4018 2237 1832 3360 3771 2662 
2792 221 4081 321 2345 1497 1638 2779 4227 
2280 1526 3703 983 229 2356 2425 4089 1059 
3954 641 1431 3237 2245 2703 1990 78 135 
3653 1876 2801 3783 936 609 1872 200 2298 
1427 1202 616 1435 4086 1574 1057 1941 3149 
1505 20 1434 1927 3139 3216 4100 2226 3646 
3656 1491 1075 2249 2720 329 2357 1077 647 
778 2772 3140 2347 502 1073 3157 1436 981 
1082 189 1442 207 1508 3589 997 2841 748 
2002 619 3586 1056 2074 2807 992 994 2283 
2358 1518 202 2359 1492 1079 2370 1083 192 
3568 3576 31 1956 2086 1963 1066 3956 3221 
989 3238 1946 1949 3102 928 2712 137 1527 
2795 2907 1524 2794 3583 946 3669 2348 644 
1873 1960 2501 631 615 2285 139 3670 637 
2805 1961 1509 3909 131 1493 3214 1513 556 
990 566 988 268 3647 3211 4012 4023 1084 
2380 648 622 1955 550 1933 203 2386 1504 
2279 1877 4028 554 1498 4101 3648 3661 201 
986 4095 1502 204 640 127 3577 4022 1070 
1050 3801 1426 1488 3633 698 3632 2711 757 
3241 1438 138 2419 2793 1046 3920 2368 642 
3337 3206 2671 3584 3231 1210 1932 1831 208 
1869 2068 3169 3933 579 1419 1803 2432 526 
2464 3126 1782 607 3205 2340 2302 870 152 
2466 577 3610 4001 3619 3986 2214 2317 1410 
4065 1834 3184 959 308 1552 1486 4060 3183 
2020 2605 1903 144 583 660 1027 245 1480 
306 2681 1890 1418 2331 179 1402 1405 1468 
1011 1846 2326 1882 612 3197 2376 1414 1918 
2759 2306 598 537 524 4046 3654 1444 1100 
3462 186 1163 2451 1914 3129 3729 3122 1415 
1447 3201 610 2310 174 172 1532 4194 3996 
1902 3133 2647 2258 1452 3509 2397 2861 1455 
4108 117 1535 544 2692 4049 2257 2267 239 
1315 1899 157 2991 4035 3590 918 2330 4171 
3948 3116 3609 3618 2744 1893 530 1417 1920 
3186 1886 3605 3990 1015 472 1536 3154 593 
3709 1017 2265 2407 1799 3118 2255 1456 2726 
2041 675 3062 972 1897 4062 3613 168 2324 
3565 188 1760 1028 652 3191 504 3172 1005 
1617 553 3193 1844 2749 151 4069 2009 180 
346 2727 178 3629 3281 3119 1471 1117 971 
2322 2470 2396 2821 2337 3620 623 57 4037 
597 4048 2344 281 3562 3027 65 2778 1459 
2709 3175 1654 558 1407 1428 1424 2914 649 
656 1895 3672 987 1053 1861 726 1025 3566 
982 4109 257 81 3194 1473 134 1515 93 
118 3659 695 1425 2847 1141 3224 1948 125 
1940 1123 1802 2659 1131 120 2507 1495 1517 
2278 3572 1368 3136 2287 133 4103 1881 2719 
3242 2780 3573 3156 124 585 3977 2384 3040 
1943 563 3208 1925 3665 4110 1659 4099 3227 
3617 3203 2776 1119 2300 1836 2286 1953 562 
3668 228 2704 3143 2497 627 2937 2375 1064 
1494 1432 3652 995 552 2247 1369 83 4098 
2187 941 3234 629 633 2297 1825 2777 2799 
2808 1433 2913 3135 2775 3650 2784 632 113 
1211 214 3575 4011 1870 1439 655 2785 1049 
569 654 2773 1959 1441 159 3096 1188 617 
212 2774 1564 2350 2056 2710 1965 3526 1489 
1866 626 1076 3155 4213 3204 3240 2616 1198 
2361 4112 1966 4088 2782 1490 3660 1122 455 
4136 1001 1863 1387 4139 2415 1002 2364 143 
564 2713 3142 1086 4075 3585 205 694 1496 
2284 2246 1880 2705 2790 998 4212 2714 4155 
2290 1875 3636 3588 4085 4092 331 102 651 
3662 1805 1954 3581 645 3781 1194 1065 1000 
3642 568 2796 2273 3252 285 3294 1584 3746 
3422 1696 1582 1465 1197 298 2044 3600 4005 
148 4145 2824 3254 3292 3303 3161 2767 97 
703 1137 310 3176 2323 2875 1581 2434 3262 
4177 670 674 2013 160 2453 665 2871 279 
1162 2814 1855 3754 3328 2810 1544 4163 4238 
1936 2080 2313 964 3726 2037 4188 4135 1706 
723 171 2408 708 2834 1604 1586 3319 3261 
3251 2019 3740 2014 711 3752 1717 3313 3266 
1007 669 3749 3763 710 2895 3730 2449 3263 
2765 233 2026 2747 3178 3259 2873 2335 2487 
4192 2564 2318 2683 1595 2872 107 2879 1588 
2036 1148 3293 3322 3989 3330 784 704 663 
2034 106 3413 4162 2883 1892 662 1598 3677 
3732 3737 2864 104 231 3753 111 1149 1615 
4118 1602 1611 979 1919 3846 547 2689 1983 
3734 274 1982 719 1096 238 2894 1976 1605 
3751 3408 241 2828 4195 287 2393 289 3165 
736 1094 1593 3253 731 1596 3198 3747 3744 
1158 273 666 3745 832 3727 4191 3997 2735 
1599 733 2404 2452 2867 1222 3326 290 165 
2338 2441 2886 3309 4054 2435 3323 1540 3257 
2457 3742 3757 671 1089 3546 1033 4182 3306 
4169 114 299 1138 1008 3684 2405 3674 311 
280 727 4167 2461 3597 1134 2092 958 4129 
3296 305 1583 1142 2866 1457 2028 2817 304 
4126 3246 2433 1208 1093 1205 3324 2454 4052 
1478 2888 2015 2388 3318 1835 3593 4183 2737 
282 1601 580 4186 1665 2743 4105 301 3683 
249 296 1105 3723 3420 3621 1146 2739 2332 
1150 283 3626 2304 2829 381 661 4127 2090 
2874 1847 2467 1641 3758 4294 3679 277 1154 
1156 309 2831 4122 1971 4159 2881 1616 1458 
164 2813 2446 2870 1538 821 2859 2022 2868 
2751 2891 4189 2519 2045 1160 3200 716 3199 
1529 4141 1975 722 2394 3255 4312 3117 3682 
2436 4131 4184 232 2437 3418 4121 314 236 
3410 98 251 4197 2902 1981 668 729 2040 
2990 1174 1460 1984 2954 1970 1531 3317 4119 
300 728 828 341 1167 3698 335 2508 777 
1609 3264 2088 2089 1608 1143 2027 255 3275 
773 2098 3795 2488 2069 3449 658 1042 1440 
1113 3353 3273 1657 2925 755 1974 1967 2024 
3685 3278 3287 3369 278 2053 259 2479 3407 
4295 2319 319 771 3451 4320 2930 1126 2429 
2903 1136 332 852 4206 3272 2899 2064 1095 
349 2854 1994 2850 1558 2934 680 1631 3256 
689 691 1958 265 4230 3640 267 3707 4138 
4200 318 4072 2060 3336 2079 687 2836 2917 
1655 146 1124 2844 2001 3796 4203 2003 3151 
2915 1553 1556 235 774 3702 4152 2426 2420 
2049 1648 330 2474 2843 3836 1120 3773 3226 
2421 688 4156 2043 2910 1247 3637 767 443 
3277 1992 4226 1195 4221 2414 3362 2109 3889 
1132 2385 2833 3634 3371 1646 765 2173 3788 
355 624 1199 2595 3714 4236 1206 2837 1567 
762 1674 350 1651 754 1238 340 775 3338 
2360 1859 764 1203 1633 3354 679 2051 270 
1212 4325 1998 4233 1677 4019 2058 2416 2908 
3370 3279 3356 2070 3803 2513 3768 2365 3274 
2797 210 2789 1723 2935 2067 4210 1129 320 
1214 1627 425 766 3706 3799 3804 1289 2926 
324 2904 3283 2296 2901 2062 2431 3823 2455 
3764 317 1177 4151 678 322 1193 382 582 
1620 1999 779 345 862 1181 1572 1625 2410 
3718 2510 1628 1215 1185 2372 1952 347 1507 
1487 2498 2928 4229 1658 692 3331 1121 3447 
2506 2377 4199 1559 3359 2512 1639 2478 3638 
3701 333 2078 1997 2912 3436 2787 3286 3785 
1570 423 2103 4093 3361 1566 348 344 2853 
3664 3779 1245 264 1200 372 3704 1626 3667 
690 3150 4143 759 3152 2371 3269 2927 4142 
3651 2061 3350 226 1562 1503 272 683 132 
1072 763 1421 2923 1534 1213 743 712 3332 
3819 328 650 985 404 3363 3700 1939 1563 
1161 2468 2748 1267 4165 386 1485 1972 293 
2818 2884 2812 244 705 732 3721 4114 1404 
248 3316 3564 3774 2448 2896 1110 4164 3755 
2442 3312 709 1973 1576 247 1910 536 3838 
3991 3731 2729 2750 1542 534 4168 1099 1108 
1929 2741 4113 4130 3301 2471 286 367 3321 
240 611 3689 1986 1103 1481 2745 3291 2315 
730 3162 4068 2007 2303 1688 243 3591 1969 
1547 1600 4120 3304 4193 725 4243 2816 3687 
1539 3695 1610 2459 734 1589 720 1463 2473 
2389 814 1578 2465 1166 2456 1968 4117 1168 
4032 166 1140 2823 2811 672 1157 3248 1585 
1170 2880 2124 4056 2021 297 739 4059 3756 
2878 1090 4166 3249 3750 291 2035 3379 1551 
2262 1088 1985 115 2860 1530 1548 3325 3232 
4181 3743 2018 3693 1107 4174 1173 2447 1711 
702 1474 3372 2440 2892 4296 677 2877 2905 
1135 250 385 246 540 4287 1133 3307 1537 
3280 1632 2039 3694 1101 2008 3250 1469 2444 
3697 3762 3265 3329 2472 4196 1590 713 2445 
1169 3295 2524 3736 3601 3260 3794 2071 4115 
3290 2876 3681 2402 2862 1731 4185 2819 1577 
3563 4224 4137 4176 1560 2052 1286 1645 3423 
1931 4218 1102 2167 1178 1521 2427 1630 303 
2046 1165 2087 2798 2535 3267 3549 3720 697 
1571 1656 3821 2381 1653 2460 343 4044 3710 
2164 2882 119 1115 3334 3340 3798 3999 1644 
3282 419 254 3759 781 2059 3778 2289 2852 
4257 2005 2261 3349 1128 256 999 2502 684 
3245 3343 2054 3352 4237 4231 686 693 2504 
2065 4234 2006 1176 744 1621 1603 3271 197 
2929 3366 2418 1300 2865 3341 3786 3888 316 
380 4146 2076 3691 4147 3824 153 338 1196 
3270 2900 1649 2919 770 1183 2362 1190 2500 
557 2424 141 3719 2373 1130 3243 1112 696 
3239 4318 681 2918 4154 4211 2846 3806 3284 
3705 2509 1575 2800 1045 1640 1209 1523 2842 
1629 3358 352 3772 2463 1184 3713 1860 2845 
1652 4222 2511 1192 4144 266 2716 1647 2514 
4220 1642 699 1636 3346 1201 4204 2770 1114 
621 3580 2532 4148 1055 2055 4096 2428 4228 
769 2494 1996 3288 3225 2489 334 2346 3276 
3712 1623 4153 2856 2715 4161 3365 2933 326 
993 2938 1977 756 1092 4063 1068 1650 4157 
4149 3871 3769 3775 253 2066 2154 2906 1612 
4225 1568 839 2085 401 1661 2175 3383 2983 
4279 2029 2047 357 1597 827 2048 4179 2950 
1673 2144 384 1695 2038 230 1265 2898 275 
2137 1541 2979 1989 3739 2135 2945 3839 3244 
3678 3395 1692 2562 276 3299 1152 2391 2970 
2565 1543 2825 4116 407 4178 3843 2552 3289 
1980 4307 810 2948 2031 3404 388 2126 2141 
3424 1660 395 2406 1546 1277 237 2550 2143 
2548 2025 831 1271 1219 3829 1978 4247 2138 
438 4251 700 2544 3735 364 2134 3355 835 
1164 2995 2458 2400 706 2094 4273 826 811 
815 3860 807 1218 4276 1979 391 356 2946 
3384 2561 3382 2128 3377 358 3380 1226 3414 
2827 2989 1224 398 3297 1252 830 1606 2987 
1261 813 812 833 1690 2967 1716 2132 4299 
2539 3810 1257 4244 1549 707 1106 2973 1276 
1671 2011 664 3400 3856 3314 2830 2980 2133 
4255 1669 4293 1155 3426 408 786 2521 787 
3811 2966 4125 1707 1227 1217 3376 3725 657 
1145 1594 1248 1258 3406 842 721 2887 4297 
2559 2546 3851 3813 2145 2863 411 2949 363 
2438 4302 387 2016 3320 3327 825 1253 4281 
390 399 1533 2469 4290 2893 2531 2537 2118 
3840 1668 1144 1709 3807 2832 2129 822 361 
782 389 3858 3833 1663 2443 2518 409 790 
4285 2136 3865 3738 2032 2517 2120 1175 1613 
1260 2526 2515 252 2978 1670 3018 412 715 
2399 3417 2941 806 3415 2996 2965 3808 4298 
1718 3680 1098 1250 3741 2096 2557 3812 1701 
2982 365 1223 392 785 2152 1091 1708 1225 
1272 2897 2826 403 3428 854 2986 1269 823 
1713 3866 3857 3724 2885 1545 2985 2855 3458 
369 393 2114 2527 795 3848 820 4289 410 
2139 307 1283 4328 2107 2097 2450 288 2869 
4242 2952 394 4133 4275 2974 2030 2130 397 
2971 836 2122 3374 3847 3427 1712 3809 3421 
1697 1268 2942 2123 2951 741 3441 1259 3373 
1246 1569 3885 440 1666 3399 2522 360 855 
1685 3396 2984 1561 4264 1151 3875 428 2994 
2000 817 4123 866 819 325 437 3432 2110 
294 2911 4272 2157 2160 1622 2549 1740 1274 
375 3815 1557 431 1204 1237 837 1305 1741 
4317 1681 435 1240 3820 4331 850 4270 1555 
2909 2587 3890 2976 2149 1216 2075 383 859 
865 1745 4219 1993 262 2077 427 4232 2101 
2057 1732 3867 1207 804 4259 4326 1236 4327 
2480 2491 857 1295 3437 3869 2156 847 3452 
768 2920 3800 4306 2588 3002 1684 1293 2063 
422 2490 3357 323 3787 3006 2534 1719 3777 
3715 2573 1686 413 374 2997 845 1282 853 
3790 1675 2148 3814 1180 3351 746 442 1679 
2146 3861 4201 434 2961 2004 370 2422 3770 
1747 3864 1118 430 3390 2582 1290 2533 2495 
849 2959 2496 2486 421 4256 4323 3429 336 
379 1726 4202 1116 3438 1294 4332 3877 3802 
1722 353 432 4319 2111 2482 750 1733 3818 
1292 1303 851 260 1729 3776 685 2590 1287 
2158 789 794 749 2585 3435 2083 2417 4208 
414 802 1306 3010 261 1298 2589 4303 3017 
3792 2932 1239 3419 4021 1288 1737 2476 2576 
753 2108 2569 803 377 3880 846 3433 3388 
2072 2411 2584 1291 2150 269 772 2412 1111 
1231 436 799 4314 424 2581 3005 844 3886 
258 1744 3453 858 1244 2475 3876 2936 2577 
1296 1281 1284 3825 3434 2567 3392 3011 841 
3398 378 3019 4265 418 2571 4262 4239 3456 
3883 3445 420 3014 2568 1682 1235 3448 2171 
2159 1738 2153 3430 3882 2147 3391 3397 2583 
2839 426 758 3455 2112 3872 2993 4260 3339 
860 3879 2155 3004 3012 3003 856 4266 1680 
3007 1230 2100 2955 2840 2523 1587 4277 4253 
406 4282 2968 4283 2099 834 3378 3412 2542 
1667 2409 2117 400 3315 3841 2988 838 2977 
1703 1266 4245 4308 3850 724 4254 2115 3849 
3311 1256 3854 1249 1580 3852 2972 1715 3409 
2563 2556 2545 1550 1702 3402 4128 2401 292 
1704 791 3832 2536 1172 718 829 4134 2858 
3855 4160 2553 1153 1705 2969 2095 3403 4246 
2017 2947 2520 3844 717 2392 1710 3834 1591 
4284 1220 2142 2975 2121 2125 4291 2547 1664 
659 788 3837 302 1278 2943 1689 3381 2543 
3722 2390 2439 4240 1228 234 796 1607 1262 
2116 3305 4278 3375 1700 3675 359 2010 2093 
3405 284 3835 1662 2963 816 3859 3766 1698 
1171 1221 3831 1672 402 3425 1263 2820 1104 
1139 313 2127 4124 4241 3873 2940 1254 824 
1714 2541 1691 2140 2815 2560 2131 1693 4286 
3416 4292 2944 1270 780 368 2033 1275 4280 
3368 1987 2558 1694 3748 797 396 809 2956 
4301 362 783 3881 1229 4274 4288 1251 792 
405 1255 3247 3845 1699 737 2953 4249 1720 
3853 2981 3842 1264 673 4261 4250 1678 3439 
2931 1734 2964 2566 3884 3394 2169 3393 1730 
1187 864 4322 3347 1243 848 2172 1159 441 
1182 2538 3443 2104 2528 2151 3789 3828 3782 
3874 2483 1233 840 1127 1308 2168 2530 2957 
2165 4309 3335 3344 2591 701 2992 3699 1725 
1189 2848 1736 1742 2423 433 4324 2163 793 
3016 3268 4321 2395 4170 2119 4263 798 4217 
415 776 3454 1687 867 1234 2162 339 2579 
4267 3797 2484 3457 4258 2998 2499 2572 2492 