# vtk DataFile Version 4.0
Generated by LIGGGHTS
ASCII
DATASET POLYDATA
POINTS 207 float
-0.24345 0.00718186 -0.244921 -0.220183 0.0070915 -0.244974 -0.210608 0.00710925 -0.241971 
-0.201019 0.0071726 -0.244997 -0.181498 0.007191 -0.241979 -0.168719 0.00708905 -0.242094 
-0.231964 0.00711849 -0.239221 -0.191837 0.00720521 -0.240709 -0.243829 0.00708878 -0.231959 
-0.233075 0.00710359 -0.228687 -0.166496 0.0072133 -0.229135 -0.24472 0.00719424 -0.221971 
-0.178914 0.00721397 -0.218094 -0.234743 0.00720971 -0.213833 -0.223687 0.00720994 -0.216726 
-0.197338 0.00709114 -0.21543 -0.227305 0.00719475 -0.206902 -0.217299 0.00707833 -0.207078 
-0.172913 0.00712492 -0.200898 -0.245 0.00708837 -0.193633 -0.229743 0.00707165 -0.196665 
-0.218126 0.00707601 -0.197073 -0.206439 0.00721995 -0.189353 -0.192578 0.007228 -0.191826 
-0.181633 0.00712307 -0.189392 -0.169232 0.00719926 -0.191188 -0.230991 0.00710232 -0.186721 
-0.244601 0.00709853 -0.180649 -0.223708 0.0072166 -0.179805 -0.204101 0.0072007 -0.178942 
-0.191842 0.00707083 -0.178051 -0.214365 0.00720726 -0.17362 -0.169055 0.00707598 -0.172176 
-0.162464 0.00713476 -0.164277 -0.243953 0.00720601 -0.157715 -0.182225 0.00709913 -0.15796 
-0.217218 0.00718125 -0.154273 -0.166771 0.00718445 -0.154861 -0.244374 0.00709381 -0.147162 
-0.224885 0.00718587 -0.147751 -0.234421 0.00722509 -0.14456 -0.211215 0.00710401 -0.14084 
-0.163212 0.00709955 -0.143174 -0.243527 0.00721017 -0.137043 -0.227055 0.00711142 -0.137765 
-0.187425 0.0071258 -0.134238 -0.234952 0.00707942 -0.128649 -0.222106 0.00710658 -0.128938 
-0.212135 0.00713869 -0.130813 -0.17808 0.00709664 -0.130513 -0.159162 0.00720389 -0.130239 
-0.245 0.0070913 -0.126731 -0.196085 0.00709409 -0.126371 -0.18647 0.0072145 -0.122551 
-0.238044 0.00710941 -0.118806 -0.228233 0.00709167 -0.120842 -0.219084 0.00715987 -0.115719 
-0.208208 0.00714785 -0.118945 -0.173463 0.00712827 -0.120007 -0.163527 0.007106 -0.118348 
-0.244813 0.00717408 -0.111383 -0.210789 0.00710521 -0.109256 -0.232177 0.00718795 -0.106129 
-0.181698 0.00721755 -0.107038 -0.166231 0.00709924 -0.108679 -0.156081 0.00710266 -0.107334 
-0.244911 0.00709763 -0.100257 -0.200537 0.00707782 -0.101598 -0.190203 0.00710238 -0.10151 
-0.17346 0.00707322 -0.10122 -0.195041 0.00718477 -0.0855654 -0.15783 0.00709484 -0.0852131 
-0.244917 0.00708184 -0.0656912 -0.18656 0.00718799 -0.0651921 -0.169568 0.00718072 -0.0555276 
-0.197478 0.0070709 -0.0448222 -0.245 0.00709128 -0.00218285 -0.178457 0.00718398 0.243064 
-0.158516 0.00721758 0.0194268 -0.203391 0.00720945 0.0877215 -0.225686 0.00711346 0.105464 
-0.231287 0.00711077 0.216502 -0.213065 0.0072195 0.213838 -0.223579 0.00710216 0.228648 
-0.24442 0.00709898 0.234637 -0.243494 0.00721394 0.245 -0.230854 0.00721326 0.242772 
-0.143649 0.00709493 -0.244805 -0.133483 0.00708095 -0.245 -0.122696 0.00708392 -0.244813 
-0.0531954 0.0071248 -0.245 -0.129707 0.00706648 -0.232748 -0.137525 0.00719526 -0.226333 
-0.132636 0.00709656 -0.0241456 -0.0956837 0.00723842 -0.220553 -0.15068 0.00721483 -0.212974 
-0.13841 0.0072146 -0.215998 -0.0836447 0.00709326 -0.211155 -0.10874 0.00724495 -0.18953 
-0.0986666 0.00709703 -0.191829 -0.0816488 0.00720665 -0.192988 -0.154522 0.00709665 -0.18308 
-0.117493 0.00707492 -0.173297 -0.152613 0.00722065 -0.166043 -0.112517 0.00708391 -0.164553 
-0.0960683 0.00719479 -0.167539 -0.0668375 0.00709393 -0.165106 -0.101171 0.00724288 -0.15866 
-0.117922 0.00708902 -0.155892 -0.148764 0.0070835 -0.145399 -0.115133 0.00719998 -0.146027 
-0.0565059 0.00718084 -0.148054 -0.115759 0.00718765 -0.132678 -0.139735 0.00709739 -0.128335 
-0.150696 0.00718771 -0.124048 -0.106948 0.00707362 -0.12553 -0.107962 0.00709105 -0.115576 
-0.0952765 0.00710461 -0.118192 -0.148391 0.00706948 -0.11403 -0.123413 0.00718337 -0.112913 
-0.0545416 0.00711883 -0.111285 -0.127346 0.00721705 -0.0979476 -0.154599 0.00721977 -0.0960615 
-0.145423 0.00717828 -0.0613039 -0.0706939 0.00709122 -0.0623544 -0.125467 0.00710279 -0.0576939 
-0.0848892 0.00709906 0.00734245 -0.0672001 0.00709389 0.155578 -0.0544703 0.00708929 0.164072 
-0.145823 0.00721453 0.195411 -0.0189645 0.0072048 -0.239493 -1.04905e-05 0.00707086 -0.219267 
-0.0246458 0.0070811 -0.162695 -0.000346388 0.00707546 -0.162266 0.00819442 0.00708541 -0.142706 
-0.011008 0.00706418 -0.0969383 -0.0323657 0.00721098 -0.0732859 -0.00544464 0.00722641 -0.0584179 
0.0252227 0.00722792 -0.00923047 0.0350664 0.00722529 -0.0110274 0.0149123 0.00718793 -0.00472288 
-0.0519316 0.00721496 -0.228708 -0.0229893 0.00721982 0.0649541 -0.0414971 0.00723133 0.0915907 
-0.0440469 0.00710415 0.202089 -0.005302 0.0072258 0.21228 -0.0255228 0.00708884 0.221459 
-0.0401603 0.00718362 0.244082 -0.0301951 0.00711879 0.244961 -0.017821 0.00690973 0.244983 
-0.00911835 0.00720942 0.237361 0.101431 0.00711963 -0.17703 0.0748745 0.00718801 -0.163581 
0.103636 0.00723126 -0.165146 0.0691255 0.00707605 -0.0769337 0.126888 0.00718831 -0.0726381 
0.0528323 0.00708803 -0.0124584 0.082405 0.00722248 0.00751173 0.116327 0.0072482 0.0153943 
0.123476 0.00721306 0.0301501 0.0590457 0.00713403 0.108988 0.149936 0.00721056 0.183537 
0.0884366 0.00721638 0.197181 0.154022 0.0071133 0.245 0.222363 0.00708534 -0.245 
0.237884 0.00709046 -0.241879 0.232715 0.00709132 -0.228106 0.245 0.0071449 -0.229717 
0.220091 0.00707549 -0.222803 0.238125 0.00709392 -0.219578 0.207958 0.00706973 -0.21384 
0.227972 0.00711662 -0.2164 0.219782 0.00721576 -0.207646 0.212718 0.00707773 -0.200433 
0.202791 0.00721305 -0.197718 0.197813 0.00709196 -0.185705 0.245 0.0070894 -0.172086 
0.200023 0.00716953 -0.165204 0.245 0.00712786 -0.150956 0.17358 0.00708797 -0.126656 
0.245 0.00709158 -0.10291 0.231831 0.0070984 -0.0965066 0.238777 0.0071944 -0.0892624 
0.242943 0.00708554 -0.0801148 0.213159 0.00710285 -0.0595861 0.17777 0.00709171 -0.0472742 
0.221035 0.00712219 -0.0446311 0.245 0.00711069 -0.0458801 0.22949 0.00713248 -0.0371842 
0.220659 0.00720225 -0.032221 0.244154 0.0071325 -0.0340424 0.236055 0.00718025 -0.0171465 
0.2448 0.00721473 -0.0231002 0.233105 0.00707554 -0.00588436 0.242849 0.00710412 0.0331141 
0.19199 0.00708904 0.0684351 0.217634 0.00721901 0.0634732 0.245 0.00710309 0.0656805 
0.20204 0.00709128 0.0684846 0.239616 0.00721336 0.0853521 0.235613 0.00709114 0.157979 
0.244997 0.00718247 0.154239 0.158089 0.00709871 0.177244 0.161934 0.00711086 0.225691 
0.161597 0.0070385 0.235697 0.230865 0.00707109 0.234035 0.245 0.00722389 0.240352 

VERTICES 207 414
1 0 
1 1 
1 2 
1 3 
1 4 
1 5 
1 6 
1 7 
1 8 
1 9 
1 10 
1 11 
1 12 
1 13 
1 14 
1 15 
1 16 
1 17 
1 18 
1 19 
1 20 
1 21 
1 22 
1 23 
1 24 
1 25 
1 26 
1 27 
1 28 
1 29 
1 30 
1 31 
1 32 
1 33 
1 34 
1 35 
1 36 
1 37 
1 38 
1 39 
1 40 
1 41 
1 42 
1 43 
1 44 
1 45 
1 46 
1 47 
1 48 
1 49 
1 50 
1 51 
1 52 
1 53 
1 54 
1 55 
1 56 
1 57 
1 58 
1 59 
1 60 
1 61 
1 62 
1 63 
1 64 
1 65 
1 66 
1 67 
1 68 
1 69 
1 70 
1 71 
1 72 
1 73 
1 74 
1 75 
1 76 
1 77 
1 78 
1 79 
1 80 
1 81 
1 82 
1 83 
1 84 
1 85 
1 86 
1 87 
1 88 
1 89 
1 90 
1 91 
1 92 
1 93 
1 94 
1 95 
1 96 
1 97 
1 98 
1 99 
1 100 
1 101 
1 102 
1 103 
1 104 
1 105 
1 106 
1 107 
1 108 
1 109 
1 110 
1 111 
1 112 
1 113 
1 114 
1 115 
1 116 
1 117 
1 118 
1 119 
1 120 
1 121 
1 122 
1 123 
1 124 
1 125 
1 126 
1 127 
1 128 
1 129 
1 130 
1 131 
1 132 
1 133 
1 134 
1 135 
1 136 
1 137 
1 138 
1 139 
1 140 
1 141 
1 142 
1 143 
1 144 
1 145 
1 146 
1 147 
1 148 
1 149 
1 150 
1 151 
1 152 
1 153 
1 154 
1 155 
1 156 
1 157 
1 158 
1 159 
1 160 
1 161 
1 162 
1 163 
1 164 
1 165 
1 166 
1 167 
1 168 
1 169 
1 170 
1 171 
1 172 
1 173 
1 174 
1 175 
1 176 
1 177 
1 178 
1 179 
1 180 
1 181 
1 182 
1 183 
1 184 
1 185 
1 186 
1 187 
1 188 
1 189 
1 190 
1 191 
1 192 
1 193 
1 194 
1 195 
1 196 
1 197 
1 198 
1 199 
1 200 
1 201 
1 202 
1 203 
1 204 
1 205 
1 206 

POINT_DATA 207
FIELD FieldData 3
id 1 207 int
131 2346 5794 1013 1957 5883 7911 6741 2186 
1984 6357 3538 3028 1269 1458 488 371 17 
3392 1027 603 208 1247 563 1304 1011 4783 
1048 1064 95 5831 3003 1949 47 2804 4135 
2338 3760 3738 921 7074 4561 889 6484 3566 
3629 1118 2507 6159 2301 3365 618 1820 1869 
8326 2428 2361 5380 3374 2100 3282 92 3192 
4830 6454 97 1836 2371 2533 2171 1154 755 
6133 7017 3628 4486 986 3327 8696 258 1047 
1834 6251 4502 2078 4648 553 6347 8119 575 
180 1478 3341 7899 1172 4546 2373 1214 8483 
1368 5001 187 2869 3674 1383 4136 2221 1439 
8287 1555 288 3043 4951 1217 396 378 2623 
262 2494 1930 1248 4362 1496 2053 4504 1180 
4268 5126 787 2559 5244 2449 2118 3021 1503 
498 3400 7100 6239 4273 2748 1621 2195 1356 
809 7815 7842 1444 249 1545 5088 1785 662 
3270 3539 56 930 1124 1833 945 1874 692 
764 1320 5920 4496 5071 1686 4318 2230 239 
1625 456 2606 515 4482 8673 1859 1585 264 
7818 2151 1483 386 4317 791 1577 1793 88 
305 3147 2063 1146 1817 2152 7117 4661 4478 
2319 2917 1379 113 1838 3472 4356 1142 814 

type 1 207 int
1 1 1 1 1 1 1 1 1 
1 1 1 1 1 1 1 1 1 
1 1 1 1 1 1 1 1 1 
1 1 1 1 1 1 1 1 1 
1 1 1 1 1 1 1 1 1 
1 1 1 1 1 1 1 1 1 
1 1 1 1 1 1 1 1 1 
1 1 1 1 1 1 1 1 1 
1 1 1 1 1 1 1 1 1 
1 1 1 1 1 1 1 1 1 
1 1 1 1 1 1 1 1 1 
1 1 1 1 1 1 1 1 1 
1 1 1 1 1 1 1 1 1 
1 1 1 1 1 1 1 1 1 
1 1 1 1 1 1 1 1 1 
1 1 1 1 1 1 1 1 1 
1 1 1 1 1 1 1 1 1 
1 1 1 1 1 1 1 1 1 
1 1 1 1 1 1 1 1 1 
1 1 1 1 1 1 1 1 1 
1 1 1 1 1 1 1 1 1 
1 1 1 1 1 1 1 1 1 
1 1 1 1 1 1 1 1 1 

radius 1 207 double
0.005 0.005 0.005 0.005 0.005 0.005 0.005 0.005 0.005 
0.005 0.005 0.005 0.005 0.005 0.005 0.005 0.005 0.005 
0.005 0.005 0.005 0.005 0.005 0.005 0.005 0.005 0.005 
0.005 0.005 0.005 0.005 0.005 0.005 0.005 0.005 0.005 
0.005 0.005 0.005 0.005 0.005 0.005 0.005 0.005 0.005 
0.005 0.005 0.005 0.005 0.005 0.005 0.005 0.005 0.005 
0.005 0.005 0.005 0.005 0.005 0.005 0.005 0.005 0.005 
0.005 0.005 0.005 0.005 0.005 0.005 0.005 0.005 0.005 
0.005 0.005 0.005 0.005 0.005 0.005 0.005 0.005 0.005 
0.005 0.005 0.005 0.005 0.005 0.005 0.005 0.005 0.005 
0.005 0.005 0.005 0.005 0.005 0.005 0.005 0.005 0.005 
0.005 0.005 0.005 0.005 0.005 0.005 0.005 0.005 0.005 
0.005 0.005 0.005 0.005 0.005 0.005 0.005 0.005 0.005 
0.005 0.005 0.005 0.005 0.005 0.005 0.005 0.005 0.005 
0.005 0.005 0.005 0.005 0.005 0.005 0.005 0.005 0.005 
0.005 0.005 0.005 0.005 0.005 0.005 0.005 0.005 0.005 
0.005 0.005 0.005 0.005 0.005 0.005 0.005 0.005 0.005 
0.005 0.005 0.005 0.005 0.005 0.005 0.005 0.005 0.005 
0.005 0.005 0.005 0.005 0.005 0.005 0.005 0.005 0.005 
0.005 0.005 0.005 0.005 0.005 0.005 0.005 0.005 0.005 
0.005 0.005 0.005 0.005 0.005 0.005 0.005 0.005 0.005 
0.005 0.005 0.005 0.005 0.005 0.005 0.005 0.005 0.005 
0.005 0.005 0.005 0.005 0.005 0.005 0.005 0.005 0.005 

