# vtk DataFile Version 4.0
Generated by LIGGGHTS
ASCII
DATASET POLYDATA
POINTS 207 float
-0.24345 0.00703738 -0.244921 -0.220183 0.00679405 -0.244974 -0.210608 0.00683282 -0.241971 
-0.201019 0.00702443 -0.244997 -0.181498 0.00705711 -0.241979 -0.168719 0.00681975 -0.242094 
-0.231964 0.00685373 -0.239221 -0.191837 0.00706429 -0.240709 -0.243829 0.00679859 -0.231959 
-0.233075 0.00683187 -0.228687 -0.166496 0.00707456 -0.229135 -0.24472 0.007058 -0.221971 
-0.178914 0.00706998 -0.218094 -0.234743 0.0070679 -0.213833 -0.223687 0.00706877 -0.216726 
-0.197338 0.00682467 -0.21543 -0.227305 0.00707215 -0.206902 -0.217299 0.00679437 -0.207078 
-0.172912 0.00687441 -0.200898 -0.245 0.00681816 -0.193633 -0.229743 0.00677819 -0.196665 
-0.218126 0.00678881 -0.197073 -0.206439 0.00708888 -0.189353 -0.192578 0.0071066 -0.191826 
-0.181633 0.00686412 -0.189392 -0.169232 0.00704079 -0.191188 -0.230991 0.00682596 -0.186721 
-0.244601 0.00680883 -0.180649 -0.223708 0.00708804 -0.179805 -0.204101 0.00706044 -0.178942 
-0.191842 0.00678296 -0.17805 -0.214365 0.00707021 -0.17362 -0.169055 0.00679866 -0.172176 
-0.162464 0.00692261 -0.164277 -0.243953 0.00706551 -0.157715 -0.182225 0.00681015 -0.15796 
-0.217218 0.00703773 -0.154273 -0.166771 0.00704275 -0.154861 -0.244374 0.00683092 -0.147162 
-0.224885 0.00704581 -0.147751 -0.234421 0.00709356 -0.14456 -0.211215 0.00682385 -0.140841 
-0.163211 0.00681109 -0.143174 -0.243527 0.00706942 -0.137043 -0.227055 0.00683772 -0.137765 
-0.187422 0.0068741 -0.134236 -0.234952 0.00679461 -0.128649 -0.222102 0.00682684 -0.128941 
-0.212135 0.00689965 -0.130813 -0.178078 0.00680464 -0.130509 -0.159187 0.00708615 -0.130254 
-0.245 0.00679344 -0.126731 -0.196096 0.00680045 -0.12637 -0.186468 0.0070729 -0.122552 
-0.238044 0.00684854 -0.118812 -0.228231 0.00679434 -0.120845 -0.219084 0.00695161 -0.115719 
-0.208208 0.00692434 -0.118945 -0.173463 0.00687592 -0.120007 -0.163527 0.00685938 -0.118348 
-0.24481 0.00702616 -0.111385 -0.210791 0.00682375 -0.109256 -0.232132 0.0070459 -0.106112 
-0.181686 0.00711728 -0.107041 -0.16623 0.00681269 -0.108679 -0.156081 0.00682975 -0.107334 
-0.245 0.00680683 -0.100196 -0.200537 0.00679098 -0.101598 -0.1902 0.00685097 -0.101507 
-0.173456 0.00678869 -0.101217 -0.194798 0.00704342 -0.085498 -0.157736 0.00681792 -0.0851311 
-0.244917 0.00680273 -0.0661298 -0.186631 0.007045 -0.0657628 -0.169325 0.00703604 -0.0554876 
-0.198178 0.00677627 -0.0449304 -0.245 0.00679331 -0.00265782 -0.15809 0.00707737 0.0201123 
-0.203241 0.00706731 0.0870072 -0.225388 0.00685178 0.104449 -0.231285 0.00683626 0.216471 
-0.213065 0.00712895 0.213838 -0.223559 0.00681952 0.228629 -0.244443 0.00680982 0.234627 
-0.243487 0.00707137 0.245 -0.230831 0.00706962 0.24279 -0.178058 0.00704178 0.243048 
-0.143649 0.00680251 -0.244805 -0.133483 0.00680062 -0.245 -0.122696 0.00680765 -0.244813 
-0.0531803 0.00686804 -0.245 -0.129707 0.00677244 -0.232748 -0.137525 0.00706665 -0.226333 
-0.0956592 0.00712301 -0.220541 -0.15068 0.00707378 -0.212974 -0.13841 0.00707325 -0.215998 
-0.0836447 0.00679726 -0.211155 -0.108728 0.00714447 -0.189528 -0.0986665 0.0068229 -0.191829 
-0.0816488 0.00708561 -0.192988 -0.154522 0.00680469 -0.18308 -0.117498 0.00678615 -0.1733 
-0.152613 0.00709695 -0.166043 -0.112518 0.00680763 -0.164552 -0.0960685 0.0070656 -0.167541 
-0.0668335 0.00679872 -0.165105 -0.101176 0.00713981 -0.158667 -0.117922 0.00679402 -0.155892 
-0.148758 0.00680665 -0.145395 -0.115133 0.00707726 -0.146026 -0.0564835 0.0070366 -0.148043 
-0.139734 0.00680631 -0.128334 -0.115875 0.00704489 -0.132588 -0.150696 0.00704458 -0.12405 
-0.106869 0.00678724 -0.125575 -0.108009 0.00679804 -0.11563 -0.0952446 0.0068224 -0.118197 
-0.148391 0.00677784 -0.11403 -0.123412 0.00704048 -0.112913 -0.0545416 0.00686419 -0.111286 
-0.127345 0.00711614 -0.0979476 -0.154595 0.00708202 -0.0960598 -0.144823 0.00703519 -0.0610507 
-0.0706926 0.00679974 -0.0623539 -0.122802 0.00683316 -0.0589861 -0.132479 0.00683737 -0.0239941 
-0.0856887 0.00681227 0.00629167 -0.0673443 0.00679999 0.154853 -0.0545647 0.00679439 0.163526 
-0.145569 0.00707719 0.195223 -0.0189641 0.00708146 -0.239493 -0.0517293 0.00707412 -0.228532 
-5.7149e-06 0.00677615 -0.219266 -0.0245174 0.00680097 -0.162633 -0.000297478 0.00679145 -0.162253 
0.00837745 0.00679146 -0.142635 -0.0101572 0.00676618 -0.0969044 -0.0323232 0.00706985 -0.0732494 
-0.00537216 0.00710979 -0.0583735 0.0259163 0.00710759 -0.009943 0.0357176 0.00711296 -0.0120675 
0.0156653 0.00704489 -0.0054842 -0.0229362 0.00708213 0.0649496 -0.0407008 0.00713462 0.0916868 
-0.0436956 0.00682418 0.201906 -0.00539598 0.00710175 0.21222 -0.0251985 0.00680029 0.220993 
-0.00944634 0.00706716 0.236137 -0.0404943 0.0070357 0.243949 -0.0305337 0.00684914 0.244956 
-0.0177563 0.00624854 0.244949 0.10119 0.00688738 -0.178207 0.0759267 0.00704502 -0.163088 
0.102928 0.00710713 -0.165949 0.0694344 0.00678889 -0.0768647 0.127213 0.00704556 -0.0725223 
0.0533303 0.00681735 -0.0122786 0.0823368 0.00709441 0.00717449 0.116684 0.00715177 0.0154064 
0.124024 0.00706897 0.0299099 0.0592172 0.00688904 0.108872 0.149653 0.00707081 0.182716 
0.0885529 0.00708755 0.197102 0.153774 0.00684198 0.245 0.22225 0.006811 -0.245 
0.237868 0.00679782 -0.241871 0.23275 0.0067935 -0.22813 0.245 0.00691383 -0.229717 
0.220027 0.00678755 -0.222649 0.238059 0.00680004 -0.219517 0.20792 0.00677838 -0.213849 
0.228 0.0068495 -0.21632 0.219801 0.00707978 -0.207725 0.212864 0.00679293 -0.20035 
0.20278 0.00706895 -0.197903 0.198243 0.00679525 -0.185165 0.245 0.0067945 -0.171991 
0.199865 0.00697012 -0.165083 0.245 0.006875 -0.150631 0.173696 0.0067968 -0.126656 
0.245 0.00679917 -0.102273 0.232478 0.0068291 -0.0966497 0.239197 0.0070531 -0.0891957 
0.243248 0.00681149 -0.0799584 0.213135 0.00685206 -0.059569 0.178386 0.00679453 -0.0470626 
0.221072 0.00686818 -0.0446617 0.245 0.00684531 -0.0458855 0.22949 0.00688551 -0.0371842 
0.220659 0.0070634 -0.032221 0.244118 0.00692077 -0.0340029 0.244873 0.0070735 -0.0230195 
0.236201 0.0070345 -0.0168746 0.233458 0.00678769 -0.00538713 0.242864 0.00685501 0.0331455 
0.217472 0.00708041 0.0631115 0.244999 0.00685233 0.0665509 0.192422 0.00684079 0.068569 
0.202479 0.0067785 0.0687608 0.239616 0.00706883 0.0853521 0.244943 0.00675934 0.15368 
0.237066 0.00679397 0.160104 0.158325 0.00681117 0.177744 0.161541 0.00697717 0.226216 
0.161285 0.00656859 0.236265 0.230806 0.00678149 0.234031 0.245 0.00709095 0.240347 

VERTICES 207 414
1 0 
1 1 
1 2 
1 3 
1 4 
1 5 
1 6 
1 7 
1 8 
1 9 
1 10 
1 11 
1 12 
1 13 
1 14 
1 15 
1 16 
1 17 
1 18 
1 19 
1 20 
1 21 
1 22 
1 23 
1 24 
1 25 
1 26 
1 27 
1 28 
1 29 
1 30 
1 31 
1 32 
1 33 
1 34 
1 35 
1 36 
1 37 
1 38 
1 39 
1 40 
1 41 
1 42 
1 43 
1 44 
1 45 
1 46 
1 47 
1 48 
1 49 
1 50 
1 51 
1 52 
1 53 
1 54 
1 55 
1 56 
1 57 
1 58 
1 59 
1 60 
1 61 
1 62 
1 63 
1 64 
1 65 
1 66 
1 67 
1 68 
1 69 
1 70 
1 71 
1 72 
1 73 
1 74 
1 75 
1 76 
1 77 
1 78 
1 79 
1 80 
1 81 
1 82 
1 83 
1 84 
1 85 
1 86 
1 87 
1 88 
1 89 
1 90 
1 91 
1 92 
1 93 
1 94 
1 95 
1 96 
1 97 
1 98 
1 99 
1 100 
1 101 
1 102 
1 103 
1 104 
1 105 
1 106 
1 107 
1 108 
1 109 
1 110 
1 111 
1 112 
1 113 
1 114 
1 115 
1 116 
1 117 
1 118 
1 119 
1 120 
1 121 
1 122 
1 123 
1 124 
1 125 
1 126 
1 127 
1 128 
1 129 
1 130 
1 131 
1 132 
1 133 
1 134 
1 135 
1 136 
1 137 
1 138 
1 139 
1 140 
1 141 
1 142 
1 143 
1 144 
1 145 
1 146 
1 147 
1 148 
1 149 
1 150 
1 151 
1 152 
1 153 
1 154 
1 155 
1 156 
1 157 
1 158 
1 159 
1 160 
1 161 
1 162 
1 163 
1 164 
1 165 
1 166 
1 167 
1 168 
1 169 
1 170 
1 171 
1 172 
1 173 
1 174 
1 175 
1 176 
1 177 
1 178 
1 179 
1 180 
1 181 
1 182 
1 183 
1 184 
1 185 
1 186 
1 187 
1 188 
1 189 
1 190 
1 191 
1 192 
1 193 
1 194 
1 195 
1 196 
1 197 
1 198 
1 199 
1 200 
1 201 
1 202 
1 203 
1 204 
1 205 
1 206 

POINT_DATA 207
FIELD FieldData 3
id 1 207 int
131 2346 5794 1013 1957 5883 7911 6741 2186 
1984 6357 3538 3028 1269 1458 488 371 17 
3392 1027 603 208 1247 563 1304 1011 4783 
1048 1064 95 5831 3003 1949 47 2804 4135 
2338 3760 3738 921 7074 4561 889 6484 3566 
3629 1118 2507 6159 2301 3365 618 1820 1869 
8326 2428 2361 5380 3374 2100 3282 92 3192 
4830 6454 97 1836 2371 2533 2171 1154 755 
6133 7017 3628 4486 986 8696 258 1047 1834 
6251 4502 2078 4648 553 3327 6347 8119 575 
180 1478 3341 1172 4546 2373 1214 8483 1368 
5001 187 2869 3674 1383 4136 2221 1439 8287 
1555 288 3043 1217 4951 396 378 2623 262 
2494 1930 1248 4362 1496 2053 4504 1180 7899 
4268 5126 787 2559 5244 1621 2449 2118 3021 
1503 498 3400 7100 6239 4273 2748 2195 1356 
809 7815 7842 5088 1444 249 1545 1785 662 
3270 3539 56 930 1124 1833 945 1874 692 
764 1320 5920 4496 5071 1686 4318 2230 239 
1625 456 2606 515 4482 8673 1859 1585 264 
7818 2151 1483 386 4317 791 1577 1793 88 
305 3147 1146 2063 1817 2152 4661 4478 7117 
2319 2917 113 1379 1838 3472 4356 1142 814 

type 1 207 int
1 1 1 1 1 1 1 1 1 
1 1 1 1 1 1 1 1 1 
1 1 1 1 1 1 1 1 1 
1 1 1 1 1 1 1 1 1 
1 1 1 1 1 1 1 1 1 
1 1 1 1 1 1 1 1 1 
1 1 1 1 1 1 1 1 1 
1 1 1 1 1 1 1 1 1 
1 1 1 1 1 1 1 1 1 
1 1 1 1 1 1 1 1 1 
1 1 1 1 1 1 1 1 1 
1 1 1 1 1 1 1 1 1 
1 1 1 1 1 1 1 1 1 
1 1 1 1 1 1 1 1 1 
1 1 1 1 1 1 1 1 1 
1 1 1 1 1 1 1 1 1 
1 1 1 1 1 1 1 1 1 
1 1 1 1 1 1 1 1 1 
1 1 1 1 1 1 1 1 1 
1 1 1 1 1 1 1 1 1 
1 1 1 1 1 1 1 1 1 
1 1 1 1 1 1 1 1 1 
1 1 1 1 1 1 1 1 1 

radius 1 207 double
0.005 0.005 0.005 0.005 0.005 0.005 0.005 0.005 0.005 
0.005 0.005 0.005 0.005 0.005 0.005 0.005 0.005 0.005 
0.005 0.005 0.005 0.005 0.005 0.005 0.005 0.005 0.005 
0.005 0.005 0.005 0.005 0.005 0.005 0.005 0.005 0.005 
0.005 0.005 0.005 0.005 0.005 0.005 0.005 0.005 0.005 
0.005 0.005 0.005 0.005 0.005 0.005 0.005 0.005 0.005 
0.005 0.005 0.005 0.005 0.005 0.005 0.005 0.005 0.005 
0.005 0.005 0.005 0.005 0.005 0.005 0.005 0.005 0.005 
0.005 0.005 0.005 0.005 0.005 0.005 0.005 0.005 0.005 
0.005 0.005 0.005 0.005 0.005 0.005 0.005 0.005 0.005 
0.005 0.005 0.005 0.005 0.005 0.005 0.005 0.005 0.005 
0.005 0.005 0.005 0.005 0.005 0.005 0.005 0.005 0.005 
0.005 0.005 0.005 0.005 0.005 0.005 0.005 0.005 0.005 
0.005 0.005 0.005 0.005 0.005 0.005 0.005 0.005 0.005 
0.005 0.005 0.005 0.005 0.005 0.005 0.005 0.005 0.005 
0.005 0.005 0.005 0.005 0.005 0.005 0.005 0.005 0.005 
0.005 0.005 0.005 0.005 0.005 0.005 0.005 0.005 0.005 
0.005 0.005 0.005 0.005 0.005 0.005 0.005 0.005 0.005 
0.005 0.005 0.005 0.005 0.005 0.005 0.005 0.005 0.005 
0.005 0.005 0.005 0.005 0.005 0.005 0.005 0.005 0.005 
0.005 0.005 0.005 0.005 0.005 0.005 0.005 0.005 0.005 
0.005 0.005 0.005 0.005 0.005 0.005 0.005 0.005 0.005 
0.005 0.005 0.005 0.005 0.005 0.005 0.005 0.005 0.005 

