# vtk DataFile Version 4.0
Generated by LIGGGHTS
ASCII
DATASET POLYDATA
POINTS 4289 float
-0.244869 0.00606896 -0.244998 -0.226641 0.00526839 -0.244474 -0.212748 0.0114419 -0.244473 
-0.172026 0.0091619 -0.244547 -0.162784 0.00533722 -0.244874 -0.146925 0.00948315 -0.244902 
-0.13704 0.00588522 -0.244988 -0.235526 0.00992783 -0.244976 -0.223184 0.0147931 -0.244906 
-0.182723 0.00995344 -0.244857 -0.214259 0.0147812 -0.0289799 -0.237356 0.00529707 -0.236259 
-0.244944 0.0114842 -0.233613 -0.192231 0.00628511 -0.244757 -0.184311 0.00593018 -0.235541 
-0.160943 0.0127914 -0.237709 -0.140394 0.00501449 -0.234495 -0.20314 0.00544546 -0.00154808 
-0.227548 0.00709476 -0.234706 -0.218023 0.0048876 -0.238223 -0.202062 0.0105491 -0.2344 
-0.173183 0.0123228 -0.234636 -0.15257 0.00561891 -0.237601 -0.165246 0.00848993 -0.19344 
-0.245001 0.00545166 -0.224942 -0.23604 0.0100035 -0.227212 -0.222511 0.00536373 -0.226187 
-0.210433 0.0145097 -0.22776 -0.201652 0.00504539 -0.224786 -0.179428 0.00571681 -0.226263 
-0.145412 0.00834306 -0.226588 -0.210112 0.00881194 -0.0488739 -0.19024 0.00632768 -0.2275 
-0.165164 0.0137932 -0.0722816 -0.15501 0.0059803 -0.227841 -0.135218 0.013975 -0.226297 
-0.167819 0.00625865 -0.222811 -0.230916 0.0102083 -0.218622 -0.150207 0.00562295 -0.218131 
-0.241495 0.0101943 -0.216864 -0.219964 0.00790676 -0.216873 -0.192422 0.00501152 -0.217802 
-0.17568 0.00922897 -0.216359 -0.198801 0.0120543 -0.140694 -0.207948 0.00540199 -0.213343 
-0.18432 0.00505433 -0.211988 -0.165822 0.00883105 -0.21189 -0.138237 0.00575045 -0.220165 
-0.225602 0.00965631 -0.208716 -0.216699 0.00516512 -0.207853 -0.198122 0.0080685 -0.207379 
-0.151544 0.0107429 -0.207964 -0.234978 0.0129922 -0.207796 -0.190202 0.0124411 -0.0341228 
-0.180901 0.0108891 -0.204641 -0.173401 0.0139071 -0.0817077 -0.22201 0.00545533 -0.199408 
-0.211446 0.00496611 -0.199359 -0.164619 0.00494258 -0.202758 -0.14208 0.00501092 -0.208275 
-0.130121 0.00550463 -0.205667 -0.244919 0.0137413 -0.20798 -0.232323 0.0063778 -0.199174 
-0.195511 0.0054352 -0.197296 -0.155304 0.00693073 -0.199529 -0.145458 0.0143516 -0.200143 
-0.134706 0.0109095 -0.194112 -0.24437 0.0104321 -0.0808906 -0.203643 0.0112191 -0.199401 
-0.174129 0.00537407 -0.199779 -0.239557 0.0146475 -0.198609 -0.203443 0.00516006 -0.189298 
-0.225939 0.00882762 -0.190882 -0.135644 0.0121787 -0.211003 -0.187652 0.0052312 -0.191051 
-0.21937 0.0146481 -0.0203908 -0.223203 0.00502056 -0.181893 -0.165886 0.00515786 -0.184035 
-0.154496 0.00921631 -0.184817 -0.13817 0.00898294 -0.182683 -0.244993 0.0126571 -0.187524 
-0.176682 0.00511328 -0.189909 -0.17505 0.00990769 -0.0693478 -0.234602 0.00609227 -0.181079 
-0.205204 0.00558833 -0.17943 -0.18673 0.0131832 -0.177937 -0.176771 0.0100588 -0.174001 
-0.161285 0.00549864 -0.173893 -0.147149 0.0114088 -0.178417 -0.2211 0.0123367 -0.175235 
-0.213477 0.00621506 -0.18512 -0.134606 0.0130556 -0.145923 -0.144784 0.0143932 -0.21543 
-0.235678 0.0145607 -0.0251734 -0.227558 0.00523513 -0.172511 -0.212498 0.00745607 -0.17254 
-0.194814 0.0109816 -0.171498 -0.134779 0.0105593 -0.171324 -0.244959 0.00998967 -0.176748 
-0.131482 0.0142683 -0.0572992 -0.245005 0.00893022 -0.165129 -0.220018 0.0103635 -0.165438 
-0.172073 0.0111104 -0.164167 -0.161722 0.00790367 -0.164187 -0.152436 0.00820853 -0.169437 
-0.235771 0.0102637 -0.190476 -0.236704 0.00920651 -0.171162 -0.158987 0.0116384 -0.218623 
-0.230268 0.0111223 -0.00542978 -0.169861 0.0145619 -0.202377 -0.231997 0.0136712 -0.0353838 
-0.238184 0.0114059 -0.158278 -0.210661 0.0132997 -0.163204 -0.19811 0.0103362 -0.162058 
-0.185981 0.0121781 -0.164807 -0.142532 0.00593595 -0.160881 -0.13154 0.00514336 -0.163299 
-0.229229 0.00558068 -0.160972 -0.221979 0.00957549 -0.155011 -0.150223 0.0127797 -0.112236 
-0.210164 0.0125697 -0.153192 -0.20031 0.0130782 -0.151556 -0.190489 0.0098279 -0.155176 
-0.166761 0.00664435 -0.155198 -0.198041 0.0132961 -0.217992 -0.231656 0.0114928 -0.150696 
-0.194306 0.00847192 -0.0251326 -0.143381 0.00895789 -0.0390705 -0.156252 0.00740712 -0.155841 
-0.146671 0.00682919 -0.151783 -0.244993 0.00654501 -0.148039 -0.225008 0.00513386 -0.146587 
-0.193634 0.0049744 -0.145421 -0.181645 0.00734007 -0.151115 -0.147958 0.00508866 -0.00260378 
-0.170185 0.0107744 -0.146616 -0.133141 0.0066564 -0.153539 -0.236555 0.00511925 -0.139736 
-0.160093 0.00513444 -0.146895 -0.147018 0.00593404 -0.141807 -0.137615 0.014775 -0.0920008 
-0.222602 0.00521062 -0.136891 -0.175216 0.00670128 -0.138896 -0.245007 0.00514879 -0.13439 
-0.205484 0.00500754 -0.138262 -0.193266 0.00503228 -0.134741 -0.185071 0.00601137 -0.140377 
-0.16588 0.00594635 -0.135438 -0.137063 0.00531248 -0.140116 -0.156141 0.00538114 -0.137564 
-0.232424 0.00493386 -0.130215 -0.213409 0.0053034 -0.130107 -0.143798 0.00511202 -0.132375 
-0.134138 0.00929037 -0.129508 -0.235875 0.0129779 -0.125487 -0.182199 0.011157 -0.129549 
-0.243559 0.00650099 -0.124601 -0.226341 0.00585279 -0.121918 -0.199831 0.00586039 -0.12258 
-0.189919 0.00682065 -0.124144 -0.173163 0.00702218 -0.126401 -0.156503 0.00502074 -0.126238 
-0.159306 0.00902745 -0.0252309 -0.158811 0.0139523 -0.119861 -0.159542 0.00816341 -0.00591435 
-0.146225 0.00549946 -0.121406 -0.236024 0.00498401 -0.118233 -0.175197 0.00744316 -0.116187 
-0.163558 0.0052836 -0.118019 -0.136162 0.0115181 -0.118237 -0.203769 0.0120799 -0.0272269 
-0.185183 0.00756035 -0.115098 -0.146191 0.00503161 -0.107276 -0.228167 0.00546101 -0.112087 
-0.218834 0.00508348 -0.108408 -0.201733 0.0105996 -0.11385 -0.159728 0.0103387 -0.110302 
-0.191951 0.0142866 -0.0754405 -0.162094 0.00497401 -0.044731 -0.244999 0.00562012 -0.112904 
-0.23609 0.00497867 -0.106001 -0.193418 0.0102541 -0.108307 -0.168645 0.0056349 -0.105843 
-0.158918 0.00492088 -0.101803 -0.134831 0.00514889 -0.107314 -0.226611 0.00492312 -0.102137 
-0.205149 0.00728276 -0.105081 -0.18289 0.011175 -0.105916 -0.213459 0.00522894 -0.0998318 
-0.195295 0.0061673 -0.0993641 -0.185733 0.00755591 -0.0963607 -0.174653 0.00897416 -0.0982949 
-0.178665 0.013839 -0.0346591 -0.235765 0.00591224 -0.0947225 -0.131527 0.0114345 -0.237318 
-0.160612 0.0147299 -0.101251 -0.142387 0.00997442 -0.0994214 -0.223902 0.0116988 -0.0907915 
-0.178288 0.00575056 -0.0850008 -0.163776 0.00629477 -0.0930443 -0.24465 0.0069721 -0.101182 
-0.204256 0.00550485 -0.0948863 -0.218119 0.0132717 -0.0100084 -0.151883 0.0120968 -0.0967496 
-0.143328 0.0139194 -0.0838687 -0.215882 0.0127663 -0.138286 -0.150335 0.00762791 -0.0877775 
-0.245001 0.0051621 -0.0894776 -0.235336 0.00593732 -0.0845816 -0.13501 0.00534181 -0.089749 
-0.193119 0.0148595 -0.193787 -0.181982 0.0148393 -0.0867502 -0.142379 0.0150766 -0.13274 
-0.189654 0.00616123 -0.0820796 -0.159082 0.00499144 -0.0837142 -0.140618 0.00506058 -0.0799115 
-0.135571 0.0135862 -0.0433858 -0.229556 0.0124338 -0.140006 -0.151619 0.0122848 -0.0785454 
-0.244505 0.00512653 -0.0724423 -0.220449 0.0117347 -0.0799985 -0.209024 0.00912059 -0.0761053 
-0.16879 0.00542465 -0.076709 -0.15645 0.00513625 -0.0732328 -0.234804 0.00702327 -0.0741127 
-0.226063 0.0126547 -0.130119 -0.197043 0.00576547 -0.0739921 -0.181679 0.00551157 -0.0755989 
-0.224746 0.00900233 -0.0638407 -0.204181 0.00844325 -0.0670393 -0.133434 0.00493515 -0.0720782 
-0.21379 0.00854065 -0.116367 -0.191076 0.0148311 -0.0920671 -0.165721 0.00542075 -0.0667115 
-0.144548 0.00602522 -0.0692961 -0.244999 0.00531812 -0.0624755 -0.184723 0.00912454 -0.0600187 
-0.17544 0.00538082 -0.0600447 -0.234289 0.00545098 -0.0641636 -0.167463 0.0126827 -0.0588005 
-0.155591 0.00846073 -0.0638524 -0.228795 0.00510113 -0.0556026 -0.216043 0.0066627 -0.0579552 
-0.194457 0.0066868 -0.0616791 -0.179056 0.00500013 -0.0488502 -0.158952 0.0049429 -0.0551618 
-0.148873 0.00507173 -0.0559364 -0.136149 0.00858607 -0.00447638 -0.20398 0.00751672 -0.0570778 
-0.190786 0.0146298 -0.0542834 -0.23476 0.0145613 -0.0567649 -0.138641 0.00535962 -0.0586046 
-0.168598 0.00514057 -0.0523572 -0.153242 0.0143291 -0.132464 -0.240706 0.00534183 -0.0508413 
-0.196749 0.00771253 -0.0501732 -0.150621 0.00578815 -0.0461113 -0.229328 0.0134894 -0.015656 
-0.231904 0.00509396 -0.0461276 -0.222276 0.0086249 -0.048057 -0.18481 0.0131172 -0.0440533 
-0.171622 0.00550494 -0.0415481 -0.139165 0.00588513 -0.048546 -0.215205 0.00603667 -0.0407517 
-0.203091 0.00503895 -0.0428811 -0.191922 0.00546976 -0.0415818 -0.182168 0.0051033 -0.0385844 
-0.224976 0.00506456 -0.0389474 -0.229019 0.00592483 -0.0298363 -0.208739 0.0050581 -0.0325056 
-0.240318 0.00720249 -0.0353891 -0.199321 0.0137032 -0.038413 -0.160388 0.0057896 -0.0346613 
-0.219045 0.00590349 -0.0307185 -0.198153 0.00497423 -0.0336634 -0.184057 0.00626861 -0.0275351 
-0.150739 0.00546549 -0.0321593 -0.165988 0.0151716 -0.0360535 -0.170124 0.00629268 -0.0273738 
-0.135552 0.00514026 -0.0334298 -0.187905 0.00524465 -0.0181742 -0.243838 0.00524875 -0.0186388 
-0.223241 0.00537539 -0.0213859 -0.202691 0.00505432 -0.0201958 -0.177567 0.00541816 -0.0184944 
-0.131199 0.00927103 -0.0212386 -0.213172 0.00490532 -0.0190886 -0.167623 0.00825587 -0.0177918 
-0.146523 0.00720327 -0.0157724 -0.185475 0.0122134 -0.218867 -0.233844 0.00573985 -0.0206629 
-0.183956 0.0141127 -0.0146374 -0.142631 0.00778962 -0.0267983 -0.238323 0.00486457 -0.00953881 
-0.223684 0.00496102 -0.00975469 -0.206291 0.0103536 -0.0125895 -0.178533 0.00696474 -0.00865932 
-0.157929 0.0109892 -0.0155112 -0.193612 0.00944775 -0.0110124 -0.138255 0.0127765 -0.0150759 
-0.215287 0.00570616 -0.00367069 -0.16921 0.0105076 -0.00692862 -0.182022 0.0126599 -0.194845 
-0.163891 0.012985 -0.128627 -0.13685 0.0125255 -0.0656369 -0.244611 0.0123321 -0.00763565 
-0.157118 0.0143044 -0.192999 -0.24054 0.013775 -0.142511 -0.160783 0.014808 -0.143689 
-0.221045 0.0134881 -0.102285 -0.199862 0.0140648 -0.180057 -0.244726 0.0124377 -0.0450132 
-0.217087 0.0133885 -0.191156 -0.206394 0.0145326 -0.208621 -0.221743 0.0148494 -0.146167 
-0.163134 0.0141596 -0.0831825 -0.232244 0.015224 -0.0462341 -0.231779 0.0134488 -0.102346 
[...]
POINT_DATA 4289
FIELD FieldData 3
id 1 4289 int
1786 1313 3489 3483 3891 1792 2693 480 2178 
469 1375 2215 5 3066 917 474 2271 1318 
14 920 487 1366 464 2256 1354 3053 3927 
2640 3950 475 538 3982 453 1019 482 3494 
1325 922 3056 3502 1783 3898 2601 2220 2217 
3922 2606 2216 1364 451 1337 3946 897 1340 
1363 3115 3055 3484 3077 489 3988 54 1761 
1757 477 3895 3624 467 1323 486 2628 13 
1752 1353 1420 1834 1350 2607 492 531 1797 
925 2755 871 3492 2632 3490 918 1782 2634 
3466 96 3025 2643 16 40 47 1320 39 
581 3495 3486 3471 2197 597 907 3465 7 
3542 912 2645 2625 36 3074 3511 3059 600 
2623 3926 1416 3061 1338 62 2198 1319 3035 
3508 2223 181 1846 63 1310 2207 3925 1889 
3545 1012 1762 2631 3027 2328 910 1348 46 
1345 1781 1775 1339 4047 1756 2644 881 614 
1418 3504 877 3469 3938 3896 3893 1884 590 
169 1791 3558 2641 898 3057 2629 576 2626 
602 1349 1759 2646 1346 2602 900 3592 1355 
1342 3900 49 58 2764 3078 2208 1798 2639 
1406 3482 913 2756 483 12 1315 2636 1316 
2180 2184 2200 1898 1371 3196 1408 906 3079 
1361 3943 3186 2201 59 970 2698 868 1844 
599 1801 2342 2211 3028 1753 905 1852 1352 
915 1795 35 2599 1479 2694 3923 1799 1314 
1924 473 3932 1784 2598 3120 1005 11 1758 
2199 2326 3611 1904 198 479 452 1343 3159 
3112 3937 3463 1360 1905 3052 2600 3050 3510 
3892 3182 1311 3899 3935 873 3940 34 490 
3032 1365 3069 2181 51 3905 3033 3468 1765 
3058 485 874 3054 3506 55 2213 3951 510 
4049 1755 1347 22 869 1351 2642 3104 44 
1401 2605 2321 3467 218 3487 3472 2699 2205 
2325 926 1789 3071 3070 3928 3902 919 2218 
45 3491 3076 1849 42 2182 493 144 450 
67 176 77 1776 1329 79 29 2664 209 
3108 3919 2659 885 944 1397 953 3521 3516 
3911 2690 521 2650 3897 1085 3958 625 878 
74 4026 1396 2204 2236 4094 81 18 2655 
30 1359 3963 3202 3236 2617 17 1328 519 
3105 4009 3477 498 1811 3044 88 211 3635 
3233 33 449 3917 2669 938 2804 882 4103 
2250 3973 1367 1331 3145 1069 2225 2203 892 
4082 3980 64 4089 4104 3968 1819 1823 1394 
3229 3141 2633 3541 1813 1827 2379 3966 38 
2235 1076 136 890 1499 1822 2661 86 3041 
3094 3570 3571 19 2189 948 1332 3476 2662 
3530 522 24 3093 1833 80 3975 3228 930 
3464 513 2233 3979 4106 886 559 2663 1388 
3099 496 461 2672 2356 84 93 4024 4017 
2791 2654 91 1381 947 1876 1373 3517 567 
3914 3954 889 1807 2615 2242 1828 1862 3203 
2244 516 3110 549 3474 1384 3529 933 3515 
3524 1376 1826 515 2241 2616 2252 4076 463 
2619 2253 1370 495 1063 1372 27 3981 514 
931 1334 3085 3092 3103 1808 2363 1378 3039 
92 3539 4091 2783 2618 1336 3916 887 518 
1377 3478 2188 1383 78 2651 505 2676 2186 
929 3533 1831 4083 1767 3043 3960 216 3083 
1836 3970 3952 2769 2193 1054 2610 1830 2768 
500 1764 1368 3098 956 895 1423 2231 25 
2612 1817 1959 72 32 71 893 3045 95 
2190 1821 2678 634 1815 1816 949 1391 1773 
894 28 458 1518 3097 3090 2243 3540 3089 
3967 1874 3084 1335 3959 2614 517 1930 4097 
215 1766 942 506 3976 457 193 992 891 
2653 934 945 927 2187 2228 3080 2675 94 
75 507 497 85 1810 1062 932 3528 3953 
2608 4111 1824 512 1387 90 3538 1516 70 
3920 3095 68 3479 3518 1390 1386 511 1768 
2179 3101 3971 1393 3106 2232 3046 3213 2280 
3955 66 643 3142 3102 3906 1943 2637 2221 
1794 870 3187 3543 4004 1477 3063 3 3933 
2210 1411 3024 484 1779 2681 3500 142 2732 
612 3930 3497 879 3939 904 1774 901 3189 
2176 470 3029 1403 1341 445 3068 3038 1777 
3065 2638 2620 2630 1800 1321 1778 2353 911 
546 99 1312 1032 3060 596 3037 880 3493 
2627 444 481 2195 1356 1915 446 2209 586 
1467 471 1787 3462 3030 1796 3498 1358 1322 
2649 1837 3034 3944 2222 466 1413 876 4034 
3503 488 2314 1751 448 1788 177 3049 3461 
1044 3470 2219 606 3894 468 2622 2185 3609 
37 1473 909 921 3945 594 491 10 1443 
2621 3904 960 2299 3163 1838 3485 1362 3473 
1856 3931 1031 3934 1785 2635 3026 1749 3947 
3992 3929 3116 961 3544 1317 3459 3036 3903 
899 1793 2183 902 15 1357 2604 3994 41 
2647 476 52 2196 2753 4 8 2202 2177 
53 591 3607 2597 3460 3051 9 3509 2214 
2212 872 1 2624 1309 3630 3941 465 501 
69 2238 50 1051 2234 3579 3047 60 2191 
206 2239 456 1934 3064 89 3918 1895 504 
3532 883 509 884 1374 2805 3031 935 126 
3082 1392 3086 494 3949 923 951 4015 2287 
1802 3643 3513 3907 3525 2224 3569 1327 43 
1053 3537 2665 3964 3965 2288 952 1330 3921 
1820 2667 943 4087 3107 3081 2246 561 896 
4080 1059 499 2611 2670 548 1814 3091 1511 
950 2679 2374 1809 1763 1424 3480 3666 3527 
3522 3512 3088 21 3520 3910 628 199 937 
2708 3144 1333 888 1326 990 1427 3534 2247 
224 984 1772 941 1963 3962 2237 1829 2609 
2248 1805 520 23 2677 1385 3475 3526 2249 
2251 3048 459 2658 4074 3957 2613 2230 2240 
76 3969 2673 2666 462 508 2229 3100 3523 
217 3109 2227 2254 936 523 1770 939 1389 
954 1395 940 3936 2192 2657 2226 2674 3111 
3961 3912 1369 87 460 1060 3915 20 916 
2656 3978 2 3924 503 3087 2713 2660 2671 
1769 2668 2652 3972 1501 1812 1382 3531 1771 
1026 2759 48 158 3133 1803 3126 1455 3599 
2317 166 1461 3631 4064 1854 903 1841 1882 
3564 1414 1023 2316 2012 2080 3622 2324 171 
2333 3604 3619 978 2683 2750 61 1040 1486 
2329 3184 589 1750 1028 1011 601 1906 1035 
1447 3075 3547 1410 4058 2728 3190 574 3178 
1892 2403 3550 112 274 3180 2340 1020 2464 
2270 103 3556 3119 3554 1903 1037 2331 1845 
1027 1324 1463 4033 295 2603 1412 2311 3761 
1015 1058 1445 584 1919 2736 2264 447 2697 
179 1899 3616 2747 111 1468 535 4068 4066 
2301 2267 4065 4039 4030 3174 1460 1887 2733 
3166 1344 107 4036 2687 1890 3161 583 3679 
4037 528 959 598 4067 3728 1913 4069 116 
156 183 3129 2265 3987 2757 3062 1483 4003 
588 545 4054 2761 161 963 1901 3127 968 
3165 3113 4053 1014 4171 1754 1902 2307 1456 
1030 3997 165 524 971 3181 3627 3615 2691 
3169 117 2266 1446 281 1888 4043 3134 2320 
2274 2269 3552 575 3591 167 2387 3199 530 
4052 3121 1034 1976 2263 3177 1536 1041 1760 
2726 2696 2695 1141 595 2332 1452 2684 1478 
544 1482 108 3198 3593 2339 3620 3608 4050 
2648 539 1036 1029 170 547 1867 1010 4038 
2741 115 2752 4048 580 966 4045 1843 1485 
1923 4198 1459 675 2861 533 3985 162 154 
1018 1004 98 2258 4062 1039 114 593 1402 
1885 1448 168 969 159 976 3605 3170 3613 
3549 1006 1450 3621 2734 532 3590 3562 1417 
1840 4046 577 962 1444 2255 2257 3606 1637 
3561 1043 3131 3193 3595 1472 3629 3205 3553 
3594 2306 652 110 542 3559 1188 2702 1900 
2334 472 1454 2758 184 609 1419 3168 3551 
2344 3160 2922 2731 3665 2351 113 2343 965 
2749 1163 2322 1948 3565 1471 146 2746 1916 
3128 553 1453 4007 1400 2740 4063 2277 3560 
3185 1016 4057 2688 1407 3192 1995 155 1896 
3171 2275 4055 2259 957 3603 2739 1579 2323 
160 2729 178 1842 2295 2327 3623 145 3688 
3995 306 3596 3948 639 1920 525 4031 3546 
1883 526 186 4061 308 1853 2701 1449 1926 
82 2354 2771 2319 1947 2507 4199 975 1937 
654 118 4150 991 996 1457 3668 4071 1865 
1512 4035 1440 1025 3582 1475 4108 4022 2368 
653 1619 2742 2706 4077 3650 3583 4040 3581 
122 980 3158 120 57 3908 679 1048 3212 
2808 1379 1938 190 4014 192 1194 2503 1528 
1878 3645 3194 1442 647 630 2786 3235 3642 
3241 3791 3573 3280 2194 1925 626 3137 655 
3217 620 2425 1990 2716 983 2721 3154 3221 
2298 1951 3218 3535 1872 3206 4020 3574 3673 
315 571 3208 1957 757 558 2352 125 2376 
3148 129 2300 1084 229 1426 1526 3649 616 
1075 4090 1868 2369 124 1057 3646 187 1488 
1873 3207 1558 1505 2703 2292 2806 210 986 
205 3243 4010 987 1804 1966 1441 3216 4081 
3223 2916 632 135 3585 570 2069 201 3637 
3773 2777 3653 1941 200 551 2773 2362 1123 
997 1859 3656 83 651 3157 1438 1087 993 
4028 563 2370 1945 3224 2384 139 629 1928 
633 2720 2710 1429 1494 981 1000 2358 140 
1432 2373 1064 2345 4021 1879 2719 3662 121 
4096 4072 635 2297 617 2293 1380 4084 2705 
568 1932 994 3234 1962 564 214 3214 2785 
202 1437 3481 2347 1436 2364 4092 2357 2802 
3575 1055 219 1520 3568 204 1638 1086 2712 
1498 1954 2778 1077 1002 3576 189 1527 928 
1965 1866 1066 4085 1073 1953 989 645 2801 
3586 1490 556 3536 153 1514 644 2279 3143 
225 1927 1508 3136 1496 207 1997 2809 227 
4153 1071 3670 2386 3658 143 1870 4102 1079 
4107 1958 197 3909 1056 985 2795 131 137 
4100 138 1489 998 3156 1790 203 2794 1877 
1049 2501 1956 1869 1960 1515 3778 1522 132 
3364 3204 627 3634 2714 4023 1491 3633 2383 
955 3242 554 1493 1428 31 1422 3577 2779 
4027 3096 3659 1191 212 4075 2349 1509 2378 
2704 2361 1931 4093 3566 185 3672 1074 1861 
2799 4073 3139 569 566 4006 3219 134 1961 
195 1001 1211 2798 1497 2718 130 1523 4042 
1875 2792 182 1466 3162 1476 2822 3179 3991 
3557 1894 1003 541 1857 2754 587 2260 3265 
2767 529 1465 149 2273 2725 4005 1907 1855 
2276 543 150 3164 2042 1922 3942 967 6 
2268 977 152 607 1451 2341 2682 106 2743 
3022 1009 3197 4060 3183 608 454 1921 1399 
180 172 2762 1398 2730 1839 4001 2337 4041 
2302 2738 979 1850 1117 3983 2763 2766 573 
4187 3125 3173 2305 3610 3175 3998 1100 2312 
579 2009 1592 973 1914 1858 2727 578 1405 
1462 4002 2451 1480 1038 175 3555 4000 3996 
3496 537 2686 222 1891 4051 1464 745 3201 
1886 958 2700 1897 2309 2744 3191 1495 163 
3067 1024 3600 1847 3760 527 2040 109 2272 
3598 151 3984 1912 636 101 3122 4029 3692 
2685 2803 3200 603 188 3628 1409 1484 4172 
105 1022 3690 3617 908 3548 3130 3124 1988 
2310 1017 1404 1415 3172 147 3246 1851 102 
1908 1521 585 3614 2261 540 3195 972 1893 
2692 1848 1918 734 592 2308 1971 613 914 
924 572 1042 3625 1013 2206 2760 875 3618 
3990 1917 3167 157 3188 1430 2462 604 3993 
4115 2315 623 631 3138 751 4008 2336 4025 
1510 761 1052 3215 3654 2278 1433 3567 648 
2294 1964 4110 1131 4011 3220 1033 4088 1649 
2723 127 3237 4079 196 100 2782 3238 641 
4212 1565 1933 1078 194 3651 128 3040 3913 
2784 3231 649 562 2290 228 1506 133 1955 
1881 3584 995 213 2793 618 2366 3639 3716 
3209 2286 3240 552 4078 3519 1080 3227 2282 
1067 1081 191 2348 3222 1573 4013 3641 3671 
455 2291 340 2807 1502 560 2355 1936 3612 
2380 1492 1431 1659 257 1082 3655 3657 123 
221 2283 3149 2724 3636 557 2781 220 208 
4098 1196 3152 1944 3147 1046 642 1047 1942 
1061 2717 3648 2780 2722 656 3146 2056 3669 
619 2709 3977 1500 3644 3230 640 2296 1065 
946 2284 1487 2774 2350 3153 621 2800 2789 
3135 1832 1946 1880 65 3647 3667 988 2285 
1045 1935 1435 1434 2372 4018 550 1911 4230 
3663 1825 3155 3578 3211 1871 2707 2385 2245 
1504 638 1950 3140 1949 982 1524 3225 3632 
615 1070 268 637 1470 4109 3587 565 2359 
2371 3661 3956 2367 3589 4112 2790 2505 502 
2772 1513 4012 964 3316 233 310 674 720 
1552 3755 2453 1981 3292 1835 4192 4179 2313 
705 3294 1147 1989 2820 1167 1604 710 3737 
1588 2442 2925 610 3597 668 2872 275 4032 
1109 1093 4181 248 1094 4132 3601 1166 247 
2814 2745 735 3689 2827 1103 2397 1581 4180 
703 3695 2824 536 3986 2887 1169 3423 3118 
4173 2539 1007 4197 3697 3251 1610 3686 3176 
4158 3262 4188 3291 2303 714 2816 3323 4125 
2033 4190 669 2400 174 2818 4162 1542 3290 
534 2819 298 2434 2866 3298 2014 3322 731 
2973 3258 3721 1530 4116 2894 290 3304 2859 
2405 665 1972 1585 232 1138 3315 3293 2441 
3768 4121 1547 1929 297 4194 4117 739 2468 
4130 3132 719 1595 2015 3742 2829 3254 4122 
3312 1474 4169 289 3757 2456 2438 611 2991 
4191 238 3313 1591 3327 2735 1158 1599 1593 
2436 1149 3330 1598 291 2895 280 2880 706 
2452 1909 4182 3301 2888 2446 3334 2465 3310 
3306 1162 4120 408 1578 305 3751 1589 3309 
1458 3745 3744 1535 3681 3743 740 293 2440 
1590 3747 2407 732 1615 273 1714 3683 2813 
727 239 1975 3758 3687 309 3694 2390 2330 
716 3693 713 661 1088 3259 3750 246 2877 
2262 3295 1983 2886 2874 104 1008 1586 4183 
4284 1170 314 1551 1096 2460 2021 1105 726 
2811 4160 3307 1154 2388 279 4159 2467 3733 
3738 3311 2018 3682 736 4184 1984 3319 2023 
1097 1090 307 2889 3248 2860 1143 243 3325 
2027 672 1161 2883 164 2831 3296 1607 251 
1970 3329 2890 2435 3722 1098 2041 4168 1613 
4127 3691 3753 2444 4296 722 1534 2891 1539 
3260 3250 2045 3763 4287 294 337 4119 3324 
2022 2008 250 2447 2897 278 300 3759 2892 
1101 3256 296 2817 2043 236 1657 3264 265 
715 346 1654 3281 2039 2389 3680 2487 1583 
1139 338 1603 1099 3328 2445 3300 2084 1596 
3314 2470 244 728 2896 4189 659 2878 1481 
2019 4141 1968 4145 4218 1609 1164 3261 3413 
2870 2031 3563 1979 2938 4134 2473 2005 2821 
707 4185 1986 4165 3308 252 3245 2448 2443 
3727 4131 4167 3754 283 3336 2393 3273 2413 
3710 4210 2024 223 2086 2854 2915 582 3333 
2054 999 3351 2905 2065 2079 2504 4318 1991 
1210 3798 259 691 1647 1092 2346 1136 773 
2463 2087 3278 4231 3999 2049 1863 2865 332 
2914 3640 1113 3702 3707 267 1643 4152 1204 
2852 3794 319 2903 3795 3331 253 687 4156 
1644 3275 3353 1561 1213 1563 2474 2514 2426 
3797 3784 342 2060 2939 2164 3342 4138 1068 
681 765 4147 2834 646 771 1646 2934 2074 
695 3352 4216 2508 3770 2496 4146 3703 327 
689 3345 323 776 1195 1192 330 756 2901 
2839 2481 698 2480 1425 2497 3775 2001 1128 
744 746 693 1124 322 2420 3341 2930 3343 
2415 2833 2055 3226 762 1650 335 3781 1994 
781 3271 2933 2917 1567 3783 2509 3771 3282 
1653 4224 443 2498 2788 331 3712 2051 2414 
2416 4086 2510 3239 3711 1651 1564 2382 1656 
682 2913 4221 1190 1214 847 329 2067 1628 
3360 748 3799 2855 3801 1568 1129 1178 318 
3652 4236 1209 3388 4222 2429 747 2797 2787 
3362 3788 1122 352 324 1642 768 3283 3719 
3660 3363 775 3274 749 3338 2489 334 4151 
1645 3346 2842 1203 317 2932 1177 2494 1182 
226 345 1621 696 1572 1631 1560 1184 3708 
2511 3769 4123 3277 328 3785 2085 1633 3701 
255 3720 2003 1197 4207 2846 1952 2853 2410 
355 1629 678 3819 3588 2375 1503 694 1996 
258 3706 4155 1566 4211 3704 1608 2906 1120 
759 2492 2478 2078 3337 2904 1559 1181 2059 
1626 2053 3700 2589 2841 2488 3276 1635 2711 
2907 3664 1630 699 343 2923 1072 4217 4226 
3272 742 4229 2377 1112 624 2776 3361 336 
1682 2289 4143 3286 4148 1620 3358 263 3828 
4136 2937 1999 2082 2845 1421 333 1176 3449 
758 4228 339 688 1655 4227 753 321 4099 
2935 2083 2061 684 3772 690 4206 2900 3267 
2500 1102 1632 1183 270 4205 2837 325 3369 
4149 326 3349 1201 4202 1640 3685 2908 4170 
2850 1199 2770 1206 2929 3714 725 235 974 
733 285 1529 2454 3255 1267 2871 4175 2017 
1021 2013 4176 3321 4164 2884 119 3709 3746 
1108 2810 2765 2432 3774 2875 1582 245 2680 
3846 2466 3677 729 3723 1148 286 3725 1548 
3303 709 2318 287 3249 2408 249 730 1165 
97 2812 1469 3684 2037 3732 671 2020 1110 
2335 2398 4166 2007 2862 2035 663 2038 3731 
711 4177 1531 2867 3726 737 1969 148 3989 
1533 2879 2046 4126 662 3762 1973 3730 738 
1517 2026 670 4113 2828 1532 3602 2826 277 
2338 311 680 3678 3244 2868 3247 1987 1974 
723 1104 3318 1612 241 2433 2036 2459 2873 
724 3257 3675 1584 1107 1146 3117 2044 4196 
3729 1982 3756 2823 1134 1144 1089 1605 4193 
1150 2885 712 3752 2304 2457 2863 2404 1641 
299 2564 2394 4070 1168 3734 3252 2748 1145 
301 2689 1275 1538 3232 2028 282 3626 1617 
1576 1142 2472 2071 1540 3821 3676 821 3302 
2737 4129 4059 2402 1977 3317 4056 3340 1157 
1173 3368 3263 4174 2876 2010 1910 2751 2396 
2449 2881 3114 231 1135 3674 1160 1156 1133 
660 605 1616 704 173 3740 677 1174 1215 
3288 3371 303 555 1095 2052 3354 755 1993 
2281 2411 269 1939 777 1587 1208 1159 344 
1300 4044 4232 2832 1864 1050 3151 4019 1179 
2154 1571 1126 1634 385 2424 3332 2882 3335 
2360 2479 1967 3370 2076 1556 3804 1119 2068 
1205 242 2535 2911 1202 2418 2502 2088 1115 
2910 4225 1439 686 341 2006 2844 743 141 
266 261 2847 2455 2427 2928 272 2899 316 
4213 4203 3705 372 1130 2918 3572 1132 2838 
2775 2491 264 3796 2927 2512 4233 2484 4139 
3792 354 3879 3350 2431 1525 2050 778 3150 
4237 320 1992 2485 3287 767 4223 2419 1648 
3279 3765 2796 2715 697 1636 2835 254 2477 
4016 4105 1507 2000 4215 1562 1198 3270 2919 
760 2002 1574 1212 650 774 2423 2506 3366 
1200 4101 2428 2926 4200 350 3715 3803 3713 
2062 3764 779 3284 3365 752 3823 3638 1575 
1623 2513 347 4235 1114 766 2381 764 1627 
348 1193 4154 4325 772 3356 4161 3871 4271 
1940 3786 1860 622 3580 2064 1185 763 1121 
2856 2843 3790 4095 2365 4137 3359 4144 2421 
1083 4238 4234 2011 2857 401 2970 4253 1703 
4178 1667 2963 3414 2117 276 667 2551 815 
2519 3813 4247 4186 2898 4300 791 1261 2133 
1246 1706 4277 3424 3383 4283 784 2983 230 
1266 3289 4274 367 3735 3809 3833 4135 4246 
4279 2972 1544 700 2950 2047 3374 836 3842 
831 2138 2548 3850 3854 2516 2391 2523 2123 
2543 3829 1268 4254 2141 1550 2122 1255 788 
3845 1137 1265 3382 1219 834 786 240 1140 
2542 2401 1696 1106 368 1256 807 1227 2988 
302 4273 2145 4285 304 2561 237 364 1594 
3422 829 4292 1271 1153 2952 2553 2545 400 
4276 1224 1698 718 1222 292 4243 1712 1978 
3253 2547 2093 389 3841 832 3406 313 2944 
3266 1171 388 826 812 3844 3378 1218 2521 
1226 2527 1715 3405 390 1600 2524 783 3881 
825 1693 3384 284 2942 2125 816 2546 2130 
2118 2392 4244 1669 3852 1155 2439 1662 1252 
2966 2951 2137 2990 2471 1277 4297 3807 4299 
3381 2969 4281 2091 1689 1710 4255 407 657 
782 369 2030 4241 2558 234 1270 4251 2136 
2830 3400 2962 2121 666 2987 2941 2537 787 
2946 2140 2996 3847 790 3417 4289 2982 2131 
4301 1580 1253 3416 1601 4295 806 393 405 
409 3837 3831 1700 1702 842 1672 1260 404 
1699 2893 1251 827 2531 813 2469 717 809 
828 3840 3853 2557 4252 2559 2450 4294 1264 
1248 2976 4124 785 820 1549 397 3851 3808 
2437 673 1249 4118 3376 1228 835 2869 402 
360 288 1091 2967 4278 2119 1670 410 1692 
2980 3425 4288 2100 4195 811 4280 3003 2989 
4272 1263 2948 838 4293 365 1661 2560 2949 
2515 1250 1230 2984 1663 3875 3418 817 2098 
701 2587 854 1709 2412 356 792 796 795 
2985 3812 2120 830 381 1276 1546 4240 1245 
2975 3856 2556 1611 1688 3408 4245 406 4249 
2144 3811 2522 2541 2947 2167 1278 2981 387 
702 1269 2520 391 4298 2902 1220 2858 2552 
2128 2825 1254 1671 3404 2815 814 2979 721 
3810 1664 2143 1690 3888 3802 4157 439 3848 
3443 819 750 1739 864 2162 1238 4308 3880 
4324 3426 1731 2458 375 2549 4204 845 1624 
4307 1622 1678 1274 797 3355 3445 4312 382 
1243 430 1295 683 3451 2169 3789 4114 1303 
2124 2104 837 2836 1259 1639 1681 2102 1293 
3815 4264 3890 349 2483 848 2016 1569 2106 
2994 859 3348 1720 3884 2161 1236 3268 4320 
435 2931 2992 3458 2995 793 3429 804 2572 
3699 1233 4326 2173 3454 794 850 1732 860 
3867 2998 427 1554 380 3820 2573 2004 2158 
1677 2113 2073 2101 1742 3014 1680 4316 1286 
2108 383 2582 1679 3717 1242 3814 1304 374 
861 3001 1187 853 262 3450 4306 3822 3391 
1241 1231 3446 1216 419 4266 3344 3020 2920 
3787 1291 3015 3864 1674 415 2533 2534 2172 
2063 3887 2105 1745 416 3021 3776 2584 4305 
2148 4201 2476 1748 379 2924 1232 376 2430 
4220 434 2146 3438 863 3005 2111 769 442 
2575 803 2999 2529 1723 3825 1747 436 4208 
802 1625 1235 1296 852 429 4313 378 2075 
1733 4263 3876 271 2851 1282 692 3442 1298 
3410 3782 2153 2475 437 4258 2159 3698 2495 
3826 3394 3444 1111 3339 2571 2058 2567 2422 
3869 2961 1737 1730 1652 2151 856 371 2959 
1727 3434 3387 2174 1299 3878 3000 4331 3455 
3019 3010 2147 3433 3453 2594 1186 414 3457 
1729 2593 770 2568 3718 4209 2170 862 3816 
2586 3392 2395 3817 1735 4330 2591 2936 858 
1740 2849 426 1676 2592 2057 2171 1658 2081 
3269 2595 3011 1281 3012 417 2566 2110 3007 
1726 800 1280 418 1734 865 851 849 3777 
1189 432 2993 4268 2848 2577 4332 413 4259 
1684 377 3800 425 1127 1555 3767 846 3393 
1675 3407 3437 3016 3389 3874 2590 2583 2532 
1234 1738 1244 4219 1301 4327 422 2530 2840 
1683 801 3805 370 3863 2066 2109 4256 1290 
2417 2157 1207 2089 1736 3299 1717 664 1597 
1272 2048 2135 366 3412 2562 658 2986 3372 
384 392 2945 395 396 3428 2115 2134 708 
3739 3320 3839 2940 3741 1221 1172 1713 2409 
3832 789 2406 1541 3402 1980 357 3427 4128 
386 411 1543 2094 2099 1705 2563 359 1985 
3855 3347 358 2126 2550 1606 4242 4133 2132 
2954 3806 399 3409 394 2090 1151 2526 1225 
1695 2968 3375 810 398 3403 822 3749 2565 
1697 3748 2540 4302 2864 3380 1577 3326 2032 
3421 4163 4261 361 2034 3857 4250 1229 412 
1258 4269 3843 2971 1694 2127 2525 1257 3838 
3859 3415 3835 2974 3305 3860 3377 3373 2978 
1707 2095 808 3858 1217 1602 833 3724 2096 
1708 1716 2977 2953 3849 1666 1668 1711 2029 
2956 4248 1701 3297 2544 2518 2142 3018 3736 
4291 362 823 2536 403 824 1175 1537 1665 
1718 2943 1691 3420 2399 2129 1660 2461 2116 
1704 2025 2092 1673 4282 4275 2517 3865 1223 
1262 2139 1545 2097 3834 1152 3399 363 3006 