# vtk DataFile Version 4.0
Generated by LIGGGHTS
ASCII
DATASET POLYDATA
POINTS 4215 float
-0.224911 0.00604374 -0.244968 -0.210203 0.00214891 -0.242868 -0.132733 0.0109023 -0.159536 
-0.188531 0.0061938 -0.244889 -0.177709 0.00481396 -0.245 -0.167792 0.0103933 -0.243764 
-0.144866 0.00410945 -0.244993 -0.245 0.0130747 -0.0290273 -0.24246 0.014015 -0.0907541 
-0.23417 0.00393465 -0.24127 -0.200426 0.00784821 -0.23736 -0.153465 0.00846216 -0.242107 
-0.171231 0.00587171 -0.234151 -0.160231 0.00348938 -0.235902 -0.179651 0.0129832 -0.239125 
-0.139649 0.0106812 -0.193105 -0.13678 0.0132263 -0.0595855 -0.24483 0.007702 -0.23308 
-0.225174 0.00297597 -0.23246 -0.210775 0.00550164 -0.225738 -0.19073 0.00965034 -0.235773 
-0.180402 0.00147184 -0.23022 -0.133925 0.00578874 -0.234395 -0.213685 0.00849112 -0.234889 
-0.196259 0.00918665 -0.227228 -0.228351 0.0134542 -0.200821 -0.161909 0.00695919 -0.225393 
-0.235292 0.00644985 -0.230199 -0.221124 0.0111142 -0.223973 -0.171902 0.00402416 -0.22417 
-0.143921 0.00748003 -0.228777 -0.194054 0.0131654 -0.143714 -0.202569 0.00619211 -0.219967 
-0.152506 0.0065295 -0.22188 -0.178379 0.00609738 -0.000895812 -0.244829 0.00957099 -0.223131 
-0.235567 0.0080707 -0.219632 -0.211633 0.0121118 -0.217457 -0.187178 0.00518264 -0.222293 
-0.136411 0.00125572 -0.222619 -0.231106 0.0124384 -0.170727 -0.170654 0.0133783 -0.218155 
-0.214104 0.0139216 -0.0722367 -0.224175 0.0123959 -0.214436 -0.188487 0.00957857 -0.21228 
-0.178631 0.00581594 -0.216943 -0.167026 0.00416708 -0.213927 -0.145479 0.00603857 -0.214241 
-0.141972 0.0138316 -0.0137956 -0.198279 0.00617503 -0.210928 -0.157211 0.00672011 -0.212585 
-0.210412 0.00886416 -0.208041 -0.244996 0.00928277 -0.211415 -0.244294 0.0148136 -0.00838535 
-0.137402 0.0115439 -0.212156 -0.227514 0.0055093 -0.207679 -0.219692 0.0115236 -0.205439 
-0.203302 0.00662477 -0.200892 -0.178855 0.00461592 -0.206984 -0.163643 0.00944958 -0.205423 
-0.152652 0.00613921 -0.202929 -0.142044 0.00321635 -0.202294 -0.133126 0.00934456 -0.203302 
-0.236401 0.0111317 -0.20665 -0.188137 0.00646073 -0.202577 -0.213939 0.0137842 -0.122071 
-0.220498 0.0128199 -0.0956333 -0.172399 0.00844108 -0.199328 -0.242821 0.00298655 -0.201628 
-0.233681 0.00290967 -0.19677 -0.160976 0.0043786 -0.195086 -0.149883 0.00375038 -0.192408 
-0.196376 0.00905495 -0.193975 -0.180861 0.00450819 -0.195197 -0.134949 0.0121748 -0.0340003 
-0.223514 0.00768422 -0.193576 -0.213347 0.0080351 -0.195669 -0.205998 0.00811283 -0.188019 
-0.18974 0.00472858 -0.187791 -0.137011 -3.35361e-05 -0.190727 -0.170812 0.00116042 -0.18951 
-0.176771 0.00879127 -0.0327897 -0.225053 0.010054 -0.183638 -0.244842 0.0136429 -0.0588899 
-0.179057 0.0067899 -0.1856 -0.159601 0.00573754 -0.183766 -0.148642 0.00350881 -0.181004 
-0.243595 0.00809244 -0.192235 -0.147395 0.010675 -0.0263728 -0.235733 0.0112663 -0.0142623 
-0.19672 0.0133877 -0.183805 -0.242503 0.00881649 -0.182221 -0.221435 0.0122487 -0.174546 
-0.167911 0.004862 -0.177961 -0.171418 0.0123964 -0.0444364 -0.161272 0.0149348 -0.23701 
-0.204334 0.0141711 -0.130029 -0.234435 0.00174999 -0.181045 -0.159583 0.0109068 -0.173582 
-0.211957 0.0095902 -0.176341 -0.202307 0.0075212 -0.177866 -0.178381 0.00786605 -0.17564 
-0.146371 0.00934927 -0.171463 -0.13535 0.00320637 -0.17522 -0.190678 0.00813823 -0.176737 
-0.244997 0.0129251 -0.201837 -0.225265 0.0045354 -0.16863 -0.207697 0.00648033 -0.16568 
-0.195841 0.00842067 -0.16769 -0.185608 0.00829155 -0.168087 -0.176013 0.0023959 -0.161595 
-0.210917 0.0129376 -0.0422859 -0.136294 0.0122616 -0.224082 -0.156363 0.0138578 -0.196971 
-0.205713 0.0148986 -0.225015 -0.135502 0.00185163 -0.162959 -0.234959 0.00442156 -0.164833 
-0.188576 0.0072565 -0.15856 -0.164033 0.010286 -0.154511 -0.154559 0.00905086 -0.158862 
-0.143347 0.00612352 -0.155612 -0.244596 0.0074608 -0.165172 -0.225515 0.0117012 -0.161342 
-0.21782 0.00488979 -0.161425 -0.201121 0.00711663 -0.157896 -0.231236 0.00598471 -0.155456 
-0.177775 0.00409229 -0.15162 -0.237866 0.0134407 -0.156382 -0.152598 0.0120107 -0.147975 
-0.194355 0.0149795 -0.203619 -0.141401 0.00874483 -0.144456 -0.245003 0.00765367 -0.152442 
-0.23717 0.00620442 -0.146277 -0.211078 0.00543523 -0.1536 -0.196284 0.0029741 -0.148536 
-0.186363 0.00251769 -0.146578 -0.169187 0.00604418 -0.146732 -0.158919 0.00378143 -0.148774 
-0.22116 0.00924444 -0.150489 -0.245004 0.00659552 -0.14007 -0.227592 0.00663656 -0.142609 
-0.191098 0.00475588 -0.138028 -0.130806 0.00357747 -0.143317 -0.204316 0.0100441 -0.14758 
-0.243257 0.00613041 -0.244943 -0.1775 0.00397486 -0.14148 -0.214713 0.0109309 -0.245003 
-0.244998 0.00843032 -0.112493 -0.182781 0.0145732 -0.20024 -0.151546 0.00577682 -0.139867 
-0.228336 0.0149464 -0.0888213 -0.234107 0.0119239 -0.133781 -0.223489 0.00898475 -0.133378 
-0.136214 0.0113066 -0.134811 -0.211935 0.00416088 -0.142377 -0.201732 0.00804403 -0.138086 
-0.168377 0.00448517 -0.136869 -0.216311 0.0122971 -0.0821402 -0.174956 0.00829838 -0.125571 
-0.244937 0.0110438 -0.129063 -0.209137 0.00517699 -0.131842 -0.178616 0.0117346 -0.134303 
-0.1762 0.0124788 -0.228357 -0.214057 0.00717445 -0.00811678 -0.185192 0.0115394 -0.122346 
-0.236355 0.00317534 -0.115946 -0.228545 0.00656531 -0.121205 -0.19887 0.00236919 -0.123504 
-0.164027 0.00858531 -0.128314 -0.143488 0.00659523 -0.127233 -0.136408 0.0122402 -0.0892016 
-0.140817 0.00780526 -0.00570549 -0.136363 0.0083676 -0.119337 -0.218742 0.00523987 -0.119627 
-0.154992 0.00442213 -0.118332 -0.231962 0.0126997 -0.112029 -0.208022 0.00574062 -0.121144 
-0.174097 0.00757805 -0.115348 -0.201503 0.0122417 -0.0457744 -0.235183 0.0133952 -0.0240588 
-0.195711 0.00805211 -0.115372 -0.164139 0.00718962 -0.114612 -0.145897 0.00826473 -0.116357 
-0.203822 0.00305066 -0.00564403 -0.157259 0.0129873 -0.109129 -0.187687 0.0105548 -0.105933 
-0.177792 0.00912614 -0.106193 -0.142667 0.0115047 -0.104656 -0.236803 0.00590678 -0.106326 
-0.227911 0.00166431 -0.103689 -0.220088 0.00842171 -0.10741 -0.205011 0.0126921 -0.109766 
-0.163977 0.010309 -0.101847 -0.132491 0.00732749 -0.103745 -0.198501 0.0112555 -0.10185 
-0.151905 0.0070973 -0.100901 -0.244998 0.0138404 -0.0809912 -0.245007 0.00418041 -0.100751 
-0.213703 0.0138507 -0.133827 -0.169098 0.000915205 -0.013953 -0.13751 0.0136887 -0.0700714 
-0.23662 0.00731969 -0.0963176 -0.208224 0.00711073 -0.10155 -0.178726 0.0102649 -0.0957239 
-0.218233 0.00268065 -0.0993247 -0.189571 0.0113812 -0.096041 -0.159563 0.00770556 -0.0914495 
-0.14471 0.0113492 -0.0946982 -0.227135 0.00560573 -0.0936814 -0.217983 0.0044908 -0.0884421 
-0.199687 0.00732444 -0.0875052 -0.188108 0.00683321 -0.085738 -0.169933 0.00842347 -0.0912009 
-0.139 0.00347261 -0.0971764 -0.244902 0.000719695 -0.0902777 -0.207423 0.0124161 -0.0912749 
-0.177911 0.00703799 -0.084867 -0.13805 0.006995 -0.0791256 -0.237405 0.000833946 -0.0836136 
-0.225535 0.00792619 -0.0806501 -0.158478 0.0100162 -0.0803536 -0.147713 0.010704 -0.084323 
-0.2092 0.00134632 -0.0826475 -0.214833 0.0137137 -0.186077 -0.168509 0.0106604 -0.0803455 
-0.230814 0.013889 -0.148829 -0.244946 0.00436059 -0.0776137 -0.235528 0.00987102 -0.0732285 
-0.201577 0.0105343 -0.0773649 -0.181507 0.00731779 -0.0752671 -0.172566 0.00941496 -0.0706719 
-0.188785 0.00921502 -0.0074152 -0.221555 0.00697703 -0.0705115 -0.191987 0.00765442 -0.0722841 
-0.18195 0.00121287 -0.0636204 -0.162978 0.00653724 -0.0674237 -0.139767 0.00401366 -0.0670708 
-0.211266 0.00218755 -0.0714726 -0.193543 0.0136153 -0.13285 -0.149442 0.00750498 -0.0733077 
-0.244991 0.0142246 -0.172742 -0.199251 0.00153229 -0.0668204 -0.243785 0.00453757 -0.0676803 
-0.23099 0.00895181 -0.0585484 -0.182365 0.0129512 -0.152559 -0.230539 0.0143916 -0.190959 
-0.219419 0.0105165 -0.0597439 -0.209385 0.0085198 -0.0590999 -0.188231 0.0102974 -0.0628018 
-0.174843 0.00723753 -0.0554138 -0.145894 0.00561306 -0.0592523 -0.139979 0.0139682 -0.183489 
-0.197879 0.00489538 -0.0540409 -0.154152 0.010805 -0.0568728 -0.163563 0.00545723 -0.0574429 
-0.243827 0.00800393 -0.050483 -0.228982 0.00862085 -0.0479328 -0.184055 0.00894877 -0.051496 
-0.148436 0.00689433 -0.04637 -0.181076 0.00622723 -0.0137084 -0.168904 0.00379952 -0.00396629 
-0.223848 0.00856613 -0.005527 -0.21956 0.0027797 -0.0431735 -0.209098 0.00552191 -0.0494556 
-0.189667 0.00699036 -0.0432721 -0.157251 0.0116343 -0.0471096 -0.134554 0.00590801 -0.0431713 
-0.147641 0.0142807 -0.00139664 -0.232458 0.00373023 -0.0362372 -0.215555 0.00317617 -0.0338569 
-0.198087 0.0069975 -0.0378757 -0.16525 0.00360326 -0.0477621 -0.179691 0.00711012 -0.0426507 
-0.195499 0.00832545 -0.0153443 -0.130253 0.00595257 -0.0645834 -0.166733 0.00598228 -0.0381596 
-0.223964 0.00682417 -0.026948 -0.186655 0.00691339 -0.032389 -0.143663 0.007457 -0.0361065 
-0.203699 0.00484759 -0.0200554 -0.226012 0.00806 -0.0153056 -0.157967 0.00960292 -0.00952964 
-0.157867 0.0107021 -0.029756 -0.206433 0.00951241 -0.0304904 -0.196017 0.00813938 -0.0278568 
-0.17691 0.00874441 -0.0228015 -0.153432 0.00977855 -0.232136 -0.231851 0.012296 -0.000665879 
-0.168222 0.00971955 -0.0276865 -0.138214 0.00622682 -0.0266541 -0.232574 0.0037196 -0.0222229 
-0.187402 0.0140314 -0.0239487 -0.243155 0.00754535 -0.0208421 -0.217382 0.0101628 -0.0199424 
-0.159281 0.005861 -0.0203402 -0.141754 0.0041971 -0.0175123 -0.236543 0.00511223 -0.0058945 
-0.139566 0.00765408 -0.0517129 -0.224473 0.0101178 -0.0373313 -0.150718 0.0100515 -0.0168015 
-0.17299 0.01216 -0.158655 -0.145788 0.0138903 -0.220802 -0.15126 0.0132551 -0.180305 
-0.133153 0.0138745 -0.147289 -0.231746 0.0137941 -0.237383 -0.244709 0.0147234 -0.0701244 
-0.183068 0.014242 -0.221258 -0.142729 0.0145112 -0.163363 -0.177901 0.0147627 -0.191515 
-0.212398 0.014949 -0.144326 -0.140771 0.00404746 0.00627798 -0.213945 0.00627079 0.00357129 
-0.191736 0.00795312 0.00206856 -0.169358 0.00571615 0.00764558 -0.132655 0.00378974 0.235264 
-0.244852 0.00539015 0.00953796 -0.232516 0.00397964 0.00618372 -0.177336 0.00160048 0.0124397 
[...]
POINT_DATA 4215
FIELD FieldData 3
id 1 4215 int
3492 3065 477 1792 871 99 7 2635 448 
5 1003 3473 1750 484 3551 2185 3611 3034 
3472 1779 2638 1317 3988 3180 1786 481 2693 
2597 2184 3898 919 1923 876 596 2336 3926 
3063 586 1337 3942 468 3024 2181 1797 3543 
2218 12 1366 1400 1757 1483 917 475 2655 
1325 450 62 3484 451 3056 1313 492 3761 
1800 2217 1349 3 1344 3055 3057 154 489 
531 3187 1444 880 3053 1761 8 3937 1321 
462 464 3944 3074 1842 3946 16 3897 878 
15 910 1420 3471 2648 525 1362 2207 606 
1758 1350 3545 3059 3067 2625 4053 906 1837 
2263 36 2641 951 4065 1320 1354 3128 37 
2601 911 1778 1791 1031 3925 4034 1906 3938 
912 2629 3177 538 1363 2622 2177 54 10 
1032 488 2212 3461 921 1762 2632 2631 2200 
3930 2256 480 3503 1476 907 899 1310 59 
1445 3504 2634 2606 1787 2621 3465 2644 1793 
1777 3033 3068 3896 2220 1801 485 3051 2198 
2299 3948 602 444 2602 2195 1756 3050 3929 
1781 3511 2201 3054 3603 2183 2764 2341 1357 
2211 2598 3951 1788 52 3630 1358 2639 900 
1796 2236 1619 2314 2755 1849 3894 510 2196 
996 1838 1751 3544 3506 2180 961 2646 1753 
1911 1790 3532 46 3182 55 3049 486 3195 
3902 3459 3491 74 1352 3115 2353 3030 1339 
1340 3932 1912 1351 1775 2756 1353 3992 3982 
3076 1467 3070 3028 1898 452 3542 4 465 
3026 3905 2295 1346 1408 3899 2223 2664 902 
1316 1347 2645 493 2699 182 2659 1361 38 
2698 2620 2643 1371 652 869 3078 490 1512 
467 2679 1365 2642 498 3032 883 3022 476 
3923 1401 3940 1333 3919 3044 873 110 933 
1510 3943 3643 3487 2337 2216 2746 1341 2219 
3489 925 454 1798 3215 890 516 3635 204 
77 2 218 548 3104 213 3236 512 1054 
1470 3041 3928 2723 3493 3202 2626 51 1947 
3148 2663 3561 30 23 2670 4026 1443 3080 
3965 2658 3480 11 625 185 2650 3957 4009 
206 2204 3917 1938 2342 3146 42 3145 211 
499 209 1874 620 896 505 3968 4013 2610 
558 17 1397 3918 3579 3097 3537 2674 449 
937 3052 3093 2661 33 4104 225 92 1776 
3526 2374 1878 2611 2248 3969 34 2637 43 
2612 643 938 4094 86 3645 3512 1785 1767 
3955 18 2676 3973 3952 4106 2235 886 2226 
3907 3513 459 1376 463 3099 4024 2669 948 
1807 1087 2722 1367 3087 2250 25 3981 1822 
1820 3970 2677 470 561 1809 2253 2229 511 
3039 3912 495 2240 2244 892 3518 2233 3229 
628 3101 3110 2665 2241 3474 1370 1810 20 
2242 513 2234 1378 4091 64 3666 944 2609 
939 3527 3963 217 1392 3515 2237 1862 520 
571 509 1816 3479 1382 29 3644 1811 3135 
2614 895 3517 3098 1389 1813 984 952 2724 
3657 1904 954 930 559 1334 2191 1963 2783 
1377 2768 3153 3085 991 3111 884 518 1500 
4097 3568 2281 1060 2230 2186 1514 1429 1962 
1374 1871 891 3103 27 3523 1821 514 3528 
128 3109 567 3525 1817 932 1928 1772 2193 
3529 893 3536 2660 3213 1770 1815 3090 940 
3911 2707 523 3708 72 28 3046 1395 3960 
4073 1516 887 1808 3092 2613 2809 1766 3953 
2378 3959 2227 199 3972 990 3648 2203 3083 
85 3569 75 1071 1335 457 1329 2608 2672 
3230 638 2252 3966 3535 76 216 3913 2232 
3980 3538 3516 2673 227 4111 3069 2804 1318 
1062 1908 3903 169 1803 608 2208 1755 4033 
909 1783 3494 3502 2209 142 966 1477 1356 
879 9 2178 3495 453 2736 1014 922 2182 
3908 474 3460 220 3922 875 2333 3029 471 
1345 2640 3163 3565 1752 3190 3950 2176 590 
546 914 2627 1416 1852 1360 2652 2628 2205 
3466 3035 1846 162 2202 67 3947 2633 535 
1348 2215 3061 1950 3975 576 3112 874 446 
177 868 53 58 3893 3077 2607 1795 2599 
40 3469 1312 901 3031 889 898 1406 2305 
634 2277 2604 3931 1338 2649 2210 926 63 
2694 466 3037 3631 2221 3025 3071 913 915 
2334 3464 3482 1022 2623 1342 47 41 1417 
2600 905 1010 181 3159 1915 1883 4030 175 
2379 1802 45 3935 581 3038 1343 2328 4082 
445 3467 1784 35 3086 1924 2636 872 3036 
3510 3496 923 3147 2312 3047 1411 3158 1759 
176 3189 3108 2309 89 1044 473 3521 1479 
3120 1322 1314 2325 1865 2624 96 4050 3994 
3924 3483 3608 6 1 877 483 50 1774 
1921 3927 4047 1311 3508 1856 1794 3892 1900 
1355 3196 3079 49 904 1375 2752 881 491 
487 4066 2199 39 1019 3486 3470 3624 4004 
1413 594 1391 4103 2617 1520 2251 3936 1327 
2179 2758 502 1359 3958 3522 3962 93 1330 
935 3916 1393 936 4017 4071 202 519 629 
3531 69 496 1423 3920 2349 1499 190 2656 
2190 4080 927 1763 3904 3064 3949 3094 3045 
653 1380 1943 4083 549 3081 515 21 3578 
1336 882 66 2243 2653 2280 3971 916 187 
4076 84 2383 945 1826 894 494 1812 1384 
3106 3088 2615 3979 3520 71 224 3978 950 
888 194 88 2347 79 3043 1381 3475 2654 
91 3144 1372 3107 1827 2254 3048 955 2228 
942 2291 2708 3961 2189 3921 460 3910 193 
1828 1764 2188 1937 1386 2225 90 934 32 
3671 1934 3478 4074 4084 521 3091 1390 2657 
95 2651 1433 1511 68 1824 1879 3100 24 
501 1078 3485 219 3967 3539 126 1833 1823 
1422 2238 1441 1385 1501 3915 1328 3976 3481 
2239 1326 500 456 508 2224 3914 3570 1768 
1387 3530 1061 2678 1830 953 2192 507 3477 
956 2194 3534 3141 2231 1069 3533 2666 458 
1771 1396 1394 1051 461 1528 3082 1331 1769 
60 1819 3228 3964 3540 2769 1475 506 2668 
3476 1373 931 947 929 2293 1324 604 4000 
579 3599 3164 544 13 2464 1595 3191 3627 
447 2340 1854 2042 2403 3604 158 1009 3183 
607 1026 4064 2762 482 3598 1023 1035 2466 
4158 155 1841 152 1922 1403 4001 1028 959 
1109 3616 1006 1448 2329 1016 1552 2451 4060 
3154 3995 3622 4205 1754 3891 2749 2301 2462 
1040 2315 2313 3605 2687 4058 3552 1882 1840 
573 2270 1789 2267 2603 183 306 1038 1410 
2727 2324 1419 978 2757 2259 170 106 2310 
1043 3729 2730 1027 962 1480 112 974 2331 
3197 1890 973 1037 4173 1398 1013 3075 4068 
245 3133 163 1896 968 740 1446 977 3556 
2327 2275 1782 2206 178 156 2697 1844 1011 
3173 3201 610 151 3602 3129 2258 3614 2681 
1418 3996 2753 600 2695 2732 1414 598 3132 
4003 3125 1888 4190 1532 908 3554 2316 3310 
1458 1850 2761 3596 1909 3130 578 3302 592 
1853 3131 1858 4067 4038 2696 145 1452 1018 
572 114 172 1030 530 2320 2692 4194 2803 
2821 2271 1897 1988 167 575 3181 1902 3618 
1024 1968 3557 2272 2307 545 3174 2397 675 
969 3127 3121 295 2734 605 2470 603 2306 
101 1765 2725 2680 3558 4117 1899 4035 3220 
532 2213 3590 2274 1851 597 4037 469 3990 
116 4172 4087 1482 574 3709 4006 599 1857 
1058 3168 2691 1430 2197 2889 2766 1905 3625 
4061 542 555 4051 3595 2771 584 1867 613 
3170 191 3984 1052 1039 1637 1332 1885 2351 
3298 1025 1029 1117 3160 1036 2308 2702 3559 
2260 1451 1920 960 1471 1004 1884 2009 1085 
3612 3233 553 3613 1399 541 1450 577 1453 
2367 3690 3607 2742 2822 3629 3114 3308 504 
3205 1437 180 2688 963 3939 2255 4029 337 
22 3058 198 2041 3167 1454 533 2326 3301 
184 1917 1405 105 82 4108 147 3688 4187 
2991 1449 44 618 3794 2268 623 1887 4078 
3250 102 2276 639 1910 192 2605 3300 3993 
524 2647 3654 4055 537 970 1315 3626 1918 
3733 3728 2311 4002 168 3140 3563 1438 3574 
3258 1527 1638 3239 1957 2297 615 3209 3217 
2292 3192 2419 3206 2806 3360 1048 1407 2667 
1428 1877 1901 1491 3188 2356 222 2366 4090 
3212 1864 563 630 980 1932 1654 987 965 
327 1494 2246 4198 3617 4015 3649 2290 2630 
2363 195 3241 4132 2415 1935 315 1948 3650 
1119 1424 2382 3235 123 2775 3207 1425 4223 
3222 1659 1141 636 136 635 3040 1836 1179 
1876 2282 2278 3333 342 4212 1067 4020 4025 
4150 3208 1926 1868 2294 1046 565 2370 2481 
2355 4008 3138 3711 551 570 609 2781 3137 
642 3143 159 4139 2776 2717 3771 1805 208 
1131 646 121 1942 3703 1804 1832 3637 2352 
1198 1497 1945 1426 3234 80 1432 2792 1081 
1047 78 329 321 1431 983 3668 552 229 
3096 941 2718 2247 3155 3221 1383 2662 1435 
200 2703 568 1505 3954 3216 1990 928 641 
645 2801 1202 981 4086 4095 2245 3656 632 
3781 134 1951 1369 3139 617 975 1436 655 
3646 1875 656 4216 2807 1955 2002 4088 207 
3586 2772 616 2357 1927 455 778 2782 3149 
3157 1502 2249 4101 2287 3231 1079 2358 989 
3238 2935 19 2773 1525 1082 1866 1056 1949 
1442 1872 2802 3576 1965 1956 2348 1518 31 
2086 997 2501 631 2284 1863 65 205 2345 
3204 2795 2712 627 2794 100 221 3670 3956 
3669 1002 2505 3583 1513 640 4014 1941 120 
2710 137 946 1960 3909 1954 2705 4092 2714 
2300 139 1870 4112 2779 135 2285 3102 4027 
2074 2805 268 1961 3647 4018 3658 131 2907 
1646 986 2361 1368 2790 637 203 2800 522 
4012 1063 550 4023 1439 94 3582 622 2731 
4028 1869 197 1001 554 127 698 3661 1049 
2059 4040 1522 1070 2711 3084 3566 4143 1498 
1493 3567 228 2719 1053 4072 2380 1944 1517 
138 2376 539 585 2763 526 1617 601 3933 
1461 1843 612 589 2020 4115 150 3116 48 
2317 1012 3462 149 3119 2302 903 3610 2760 
4057 2738 924 1839 308 144 179 3027 2330 
2754 1005 3118 3760 3184 3199 660 3547 1894 
4041 4070 57 2685 1021 3606 2269 957 4007 
1415 3895 714 1402 2914 3062 2396 4045 3169 
1041 4062 3509 281 1464 971 1834 1462 4046 
3623 1463 2759 588 1447 2257 1096 3592 2040 
3134 3560 1163 108 4049 3186 1845 4036 1749 
118 2322 129 1486 3555 186 2387 670 346 
2700 3166 3620 918 3997 3193 3468 1017 587 
157 3218 2266 2744 3171 1907 174 1484 1903 
3124 98 543 3490 239 3615 870 472 3609 
1565 2690 2339 2265 173 1015 4171 4042 1456 
1455 2344 614 1760 3628 1472 2321 2398 3161 
3553 1861 196 3194 3983 1799 745 529 2682 
2407 70 1409 3113 3122 4048 593 2726 1893 
976 1097 3987 3597 2084 3562 2861 2728 1891 
1100 2733 2264 1412 1886 1535 3172 528 117 
3463 2686 4043 1913 2343 1460 547 3985 109 
967 4039 1579 103 3548 738 4031 4069 2068 
1995 1211 1831 1573 2786 1889 1515 3676 2706 
654 2930 2780 3801 4089 81 1210 1895 2721 
1946 982 2286 3364 4102 3662 2369 2922 3665 
1504 143 122 3095 1881 4109 569 4022 2050 
3577 3655 1084 3634 1558 3224 3784 3242 943 
133 1914 2793 125 2937 3203 1122 2261 1953 
3639 2916 1991 1057 3572 3672 1488 566 3632 
4215 1526 3641 3185 1564 649 3223 2939 140 
1086 3663 2778 3716 3633 1506 2847 1065 694 
2675 3585 2298 562 2671 2056 3175 1427 1814 
83 4079 988 995 1064 2497 2913 2384 4107 
2784 215 4081 1509 2386 633 885 3571 4010 
124 2933 1075 214 130 4011 201 651 2791 
1129 2364 212 1966 2720 3279 1074 2709 1925 
1933 2507 4100 3673 2368 3240 113 189 3337 
3653 621 1059 3136 2785 761 3346 1076 2616 
1000 3573 998 1572 626 4075 992 2296 2288 
3589 3214 2283 3660 2359 2774 2788 3636 994 
3227 4213 3519 3581 517 1959 560 619 1524 
3588 3977 2740 2279 644 1050 1492 3211 4098 
3642 1066 1958 3142 1825 2350 4110 2187 2375 
4077 3659 2808 1379 2425 2704 1473 648 695 
1621 2799 3156 3575 647 1930 1508 3906 2777 
2713 3799 3587 1080 1459 1495 1123 3524 1940 
1999 1083 3105 4085 3791 1073 1434 2354 2485 
3783 2012 3316 3252 2824 244 3294 3746 3303 
3601 1971 1105 297 3422 1582 97 1581 2044 
700 3600 3721 1577 703 1537 4168 2875 285 
248 282 2810 111 2767 3254 4164 2871 61 
160 711 4135 3292 705 702 2323 1986 1110 
4188 3766 1936 2037 3328 1855 3730 3266 1973 
2542 536 1835 2453 3319 773 3726 1169 3679 
247 3752 725 2862 367 3998 171 2868 3323 
3594 2303 357 2564 3749 4121 4192 2026 3689 
341 3686 4130 293 232 2408 3991 1007 233 
3737 4294 2318 2827 161 3322 255 107 3321 
3330 1615 1588 3754 730 1468 3293 2683 663 
3732 4197 812 527 2864 1919 1481 1688 1892 
611 1599 3743 2034 2448 3176 2828 2446 188 
3751 3304 2459 1985 1976 274 2036 381 1983 
289 3165 3747 1982 273 3727 979 2452 1596 
1108 1539 3198 736 165 3745 3257 1094 4177 
4186 1166 3687 1158 2684 4182 972 2735 2404 
3326 4119 595 3697 1469 2457 1222 733 4169 
3759 1585 3774 1592 1731 1609 1590 4174 4181 
280 1089 727 2435 4032 2888 2338 1536 4054 
3742 2895 1668 2033 305 1466 1474 1551 1138 
2092 299 2456 2035 2880 2015 2739 4129 2405 
3681 2866 2433 2938 3246 1578 1972 2332 580 
713 3318 2440 1142 2876 3683 4183 279 2987 
2878 3621 2388 4167 1478 777 661 301 1107 
2860 314 3249 1146 3379 2874 4296 246 283 
2304 3763 296 2022 2023 3232 2834 4056 1088 
3307 1847 1929 2829 2831 277 3593 3762 1589 
2884 722 385 2877 2813 1156 1538 1135 2007 
3265 821 243 4189 3723 2859 2814 2867 2751 
4159 1576 3260 307 1160 2447 164 671 4185 
2902 4218 115 4127 4131 1601 3753 540 2891 
1608 4141 2883 2045 3200 3259 2817 4195 4176 
2905 716 231 4312 4184 1161 4145 4114 2472 
2896 2737 1133 1530 2449 1205 265 2080 1586 
1457 1208 4243 1008 236 2445 3309 1641 662 
3846 2741 666 2090 784 1149 4126 1167 3549 
443 1503 723 1113 4151 3651 1199 2928 3772 
2089 2843 3828 3275 4193 2167 1143 294 257 
2098 3795 223 2748 1534 2798 2925 2164 3331 
1440 3685 556 4320 2532 2319 1967 2429 1126 
3273 2899 259 4157 3151 331 319 564 1194 
3341 278 4295 1657 2850 2837 2360 2838 1644 
4147 1188 3407 332 687 1916 1994 2060 267 
3451 4170 1636 2054 2001 1603 2064 1631 335 
1095 4257 2455 750 4203 4152 1136 3269 2917 
3702 4138 2844 3707 3867 3245 688 235 2503 
4231 3640 1128 2882 1124 2003 2929 3286 2421 
3691 1247 3719 3773 2420 774 3349 1556 153 
3277 4148 2289 4200 767 2865 256 3362 769 
1238 2051 3226 4221 839 3798 316 1178 1132 
3338 2428 2910 330 1651 2109 1939 2173 3788 
2418 762 3237 3352 678 4226 1195 1873 4236 
2414 350 4202 4325 3370 2385 2841 3714 343 
254 328 1212 290 1677 340 3356 765 770 
1118 764 1574 266 1567 3274 3824 2070 2770 
210 1674 1203 2416 2058 2494 1077 2052 2908 
748 2024 1190 4313 2067 270 2062 4318 1302 
2373 4137 1176 3282 4224 2158 3768 1289 775 
1201 1214 2901 2372 2846 1183 1185 1193 755 
779 852 1620 1575 2789 3366 1507 345 318 
1196 1523 2498 3371 322 4144 303 2488 2796 
4199 2842 1560 4229 2509 1121 1628 3447 2511 
1055 1623 3806 2410 320 3638 344 3288 3796 
2787 985 347 2912 692 3436 3369 3457 2856 
2478 1489 2078 2853 348 1120 1570 3243 3336 
3276 2000 4155 4217 624 1977 352 2061 763 
3667 3361 1200 2103 4096 1992 3150 2918 1626 
2568 3779 1630 372 1045 1286 2371 4093 1072 
3704 3359 3225 3778 2934 2055 4153 3152 650 
3350 132 1421 2595 2715 3332 759 2085 2076 
1655 2512 1181 3790 1627 2923 3449 1206 1974 
4238 1602 4005 3413 386 298 2437 2954 3564 
3986 404 1587 4287 2894 3281 2124 674 2870 
2811 1521 2881 1034 309 166 1197 3740 2444 
1717 3619 3291 1140 3989 2524 1174 2508 3755 
1103 2890 1584 3253 1616 2038 708 659 1099 
2873 2689 2441 2816 2750 310 1544 2434 3692 
3418 1604 3262 2745 3261 1978 2019 3162 2765 
3263 2432 668 2747 1711 3684 3694 669 732 
1150 304 1157 3731 1665 1969 287 1542 734 
704 3251 3178 3591 4162 2892 2879 1134 3278 
2743 2729 4191 4122 1531 3306 3750 4166 2335 
719 238 2071 1173 2389 2394 1148 731 2819 
726 3255 4118 2886 814 3744 4120 2393 3317 
3756 1548 1970 2855 2519 1170 1485 3264 3329 
2812 2021 2028 739 2465 291 1090 3677 1583 
2823 3736 3420 311 677 3757 3248 3117 1696 
2093 1610 3325 534 2454 104 2487 4052 3295 
3296 2461 2872 1162 2471 689 249 1981 3838 
1698 4165 958 4105 2436 1245 396 1848 2039 
3324 3410 241 2701 3758 2018 2467 1547 1093 
672 3682 1529 1975 3287 2458 4113 665 240 
1465 2473 720 1168 3546 3372 2990 1137 2468 
2442 148 2013 3126 2818 286 1605 1632 3290 
4196 1404 1267 710 3693 1598 250 2273 3313 
729 3280 2014 2262 1154 964 251 557 697 
1114 3007 766 119 4161 146 3720 1997 1996 
4063 2008 2513 3700 582 2087 2716 1642 317 
3712 2479 1213 4059 699 1033 3219 300 3365 
1159 1540 999 2463 4156 2852 4225 349 1563 
1101 2043 2919 1633 756 4234 2381 712 1092 
3340 993 1215 3271 3256 2426 423 3584 743 
3343 1880 3272 1496 757 4136 3889 3664 4230 
3999 1487 3354 2502 2904 691 4016 690 1300 
2079 2833 744 3701 1165 2797 683 4146 1652 
2906 4204 4206 1647 419 2506 693 4237 2006 
772 1068 3821 1639 1653 3270 684 1566 3706 
1562 2365 1649 2065 2903 3803 2053 4233 1042 
2915 3267 2154 3804 696 3775 679 3785 4211 
1568 4222 3819 355 226 2049 747 3871 3713 
1629 1112 3836 1952 2492 3698 1130 1640 272 
4220 4210 3652 3363 3353 1102 3393 324 3283 
758 3710 2427 2431 334 382 2900 1656 3882 
2510 1177 2926 862 3358 141 2460 728 1297 
3764 1860 2066 686 781 2057 1859 2088 4149 
2377 1571 333 2362 1192 3334 3823 1209 2346 
681 680 1115 1998 1184 2500 1559 2482 2474 
1553 828 4099 4019 326 2424 1723 4154 3786 
1490 2927 1648 264 4228 2489 2514 760 4227 
1650 3769 2069 3423 3580 3314 2099 3383 2968 
3850 1661 3809 2048 3841 2142 1276 1704 3320 
3412 4163 2047 400 2169 3853 1265 2825 2122 
2135 2898 2543 230 2970 3441 2402 2144 3289 
384 832 4245 3680 3299 2031 3402 1673 2562 
3839 2406 2391 4277 4116 4178 1543 1546 2988 
3843 3424 276 1706 1152 237 364 2552 1270 
3725 1266 2011 831 2143 2989 2134 4274 2400 
3403 395 3399 4125 2025 3315 822 706 2138 
3735 4251 2550 2556 2401 2858 4247 1139 3856 
1224 2145 791 815 737 3832 1255 4273 2561 
2539 4276 807 4290 2980 3382 358 368 4281 
1716 2972 392 3855 1712 1218 4292 3842 3380 
3425 1606 2975 3860 1153 1718 1715 2140 1106 
4275 398 2527 830 4246 3405 3852 707 1262 
4284 1593 2553 2132 3400 1669 4293 2565 1979 
1710 1257 3734 408 825 2885 3312 3408 1155 
1275 4255 2121 3384 787 292 724 1594 1220 
1989 2943 2966 2439 4244 1227 1693 827 2969 
2974 3375 1707 1258 2521 1228 3739 2120 2952 
3414 4297 3851 3813 788 1549 2390 2544 2128 
2443 1278 356 2893 1145 2887 2546 2438 4302 
2560 387 2469 1533 2863 2537 3840 399 4124 
1671 3807 3327 2032 2946 3866 3858 390 817 
3355 313 2978 2531 2118 389 4285 2136 3845 
1663 1098 3018 2129 3812 1597 361 3865 657 
1272 3415 1260 2820 1175 2940 2526 2515 1091 
3417 2941 409 4298 1249 2096 806 2557 2981 
3859 4301 2152 4280 4288 717 2965 3368 3847 
823 1701 2982 365 2985 1613 3857 369 1225 
3458 2815 4249 1223 2956 3426 785 1708 797 
1691 3674 3724 2986 3848 664 2558 2114 783 
2832 1545 809 795 4328 1283 1226 3395 3837 
2175 1699 4242 2094 2869 4283 4291 2097 820 
3428 2897 1714 2949 1695 2563 1660 3854 838 
3376 2392 1541 401 2029 3416 288 4279 2116 
1685 2984 2104 3005 2522 3373 2596 2924 2995 
676 4239 362 416 741 1666 866 2994 360 
3884 269 4330 3021 1561 776 2168 1233 855 
1303 1305 1237 1622 3385 1557 1304 4269 1189 
2100 837 2161 2911 3805 2475 1681 375 2549 
4263 1993 2160 428 4272 1683 2413 1741 4331 
3367 431 4317 261 4044 1555 1740 383 3890 
2909 2976 427 3430 3268 1240 849 1207 1127 
2165 2587 865 4264 3699 3016 415 242 2170 
3717 4259 1230 3437 4232 262 1732 1236 4219 
4326 3880 847 804 2490 422 3345 1293 2528 
1292 354 3800 4306 1295 3777 3431 3797 3344 
2491 3787 3792 1182 1180 3705 2961 4201 3715 
2484 413 374 2148 1569 424 4321 768 2920 
1282 2579 1679 1728 3335 2108 3444 380 442 
370 3864 3455 4316 323 3429 1301 1726 1234 
4310 4323 4332 434 1624 1290 1287 749 3770 
377 430 2959 3386 2147 1743 2572 2105 260 
3419 2430 263 2496 3008 421 2845 1747 2075 
3780 1116 2172 2533 4319 2111 1306 2585 2423 
414 3802 3339 1722 353 3438 336 2580 1288 
2591 685 851 432 4207 2417 4267 1186 1298 
3010 2569 2146 3776 1733 4303 3887 2535 3822 
3878 4021 2576 2583 3453 1239 3012 4209 3433 
1727 1737 2584 2083 2955 2112 3826 3718 2851 
2411 1231 258 4270 1612 2081 4314 2993 1291 
436 2848 376 3442 3388 752 2586 2594 2072 
1284 433 858 1736 2936 1748 2156 2839 437 
3886 378 3392 2110 339 3861 2159 1111 801 
3445 3434 841 742 420 3019 1281 371 800 
1729 1299 2571 2997 1232 2171 2153 3397 4260 
3448 1734 3872 418 2554 2163 3820 2530 794 
2157 302 2977 2141 2948 1261 2017 2548 1611 
3244 2945 829 2950 1703 1705 842 3831 1980 
394 3829 3404 1277 835 2830 1667 2125 810 
3849 1256 2117 2030 2107 1580 2409 2115 819 
2979 782 1219 407 3811 4160 2826 1251 718 
2541 1144 4250 813 3844 2523 438 2123 1550 
709 3675 3748 3374 391 1268 3297 1217 848 
816 1221 4128 3247 1690 2963 3377 1600 1250 
2520 2951 3810 338 1720 1591 786 1697 275 
792 2547 4278 3722 410 1171 796 3695 4286 
2131 4240 4179 4254 833 1243 1702 2130 1104 
411 234 2027 2971 4261 1607 2559 397 3311 
3409 1269 1264 1700 1692 3381 1662 2942 1229 
715 2518 1187 388 4133 1689 2967 824 412 
2399 2517 4253 1984 790 2126 3427 3881 403 
1713 3833 1670 1271 1263 2996 402 1151 3835 
1254 2127 780 3741 2139 721 826 406 3873 
1672 405 3421 3834 3738 4289 3808 3678 2137 
4299 1709 673 2450 284 3885 1253 3406 1664 
1694 2964 3378 2973 2095 2545 2133 1248 2010 
393 1252 4134 2983 252 2931 359 1172 1987 
2947 3305 2944 811 363 854 2477 3432 4308 
1164 798 253 1246 3443 3015 426 3439 658 
850 2480 2567 2953 2854 1686 2538 4324 2106 
2151 1678 3815 3347 808 771 2483 2836 3789 
2046 1738 754 1216 2155 1279 859 1725 3014 
1308 1742 3868 2162 857 1241 4309 440 2005 
3869 845 2588 3765 4327 2998 1554 1259 1676 
2840 1744 2999 1614 2573 3874 4329 3875 3435 
3002 840 2113 3440 753 1719 3342 3814 853 
2534 4241 860 3020 2422 1931 435 429 2004 
3000 2582 2493 2101 2957 3351 1242 4258 4208 
1285 3863 3017 3396 3009 1724 2958 2486 425 