# vtk DataFile Version 4.0
Generated by LIGGGHTS
ASCII
DATASET POLYDATA
POINTS 4287 float
-0.220412 0.00504701 -0.244876 -0.185046 0.0075864 -0.241419 -0.174222 0.00473305 -0.244963 
-0.163432 0.00982437 -0.244975 -0.149668 0.00501552 -0.245011 -0.244475 0.00661709 -0.244982 
-0.231356 0.00552744 -0.244978 -0.203277 0.0080453 -0.244532 -0.194078 0.0120112 -0.24488 
-0.139774 0.00813028 -0.244462 -0.214999 0.00516377 -0.235461 -0.156981 0.00611069 -0.238292 
-0.222781 0.0113883 -0.236552 -0.234935 0.00542284 -0.23524 -0.174878 0.00579426 -0.234939 
-0.144747 0.00745091 -0.23547 -0.245001 0.00628804 -0.234929 -0.206974 0.0111818 -0.235561 
-0.180099 0.0141119 -0.233246 -0.170115 0.0145806 -0.23384 -0.132211 0.0115095 -0.232602 
-0.244364 0.00746093 -0.224825 -0.226288 0.00719065 -0.228224 -0.215499 0.00597022 -0.224908 
-0.19152 0.00679944 -0.229657 -0.173315 0.00537717 -0.224877 -0.164383 0.00544826 -0.231582 
-0.152165 0.00873558 -0.228814 -0.234065 0.0118353 -0.223802 -0.200813 0.0136495 -0.228025 
-0.182636 0.00852493 -0.222906 -0.140587 0.00725314 -0.226268 -0.223609 0.00703832 -0.218616 
-0.143768 0.00686672 -0.215816 -0.134172 0.00733133 -0.218593 -0.205299 0.0116261 -0.218262 
-0.195264 0.00941058 -0.220767 -0.165764 0.0127484 -0.224732 -0.240603 0.00718636 -0.215591 
-0.186818 0.0047964 -0.210566 -0.176251 0.00776941 -0.211876 -0.166074 0.00568602 -0.215826 
-0.234603 0.00636759 -0.000639444 -0.156653 0.0102879 -0.21588 -0.215212 0.00889098 -0.212892 
-0.199 0.00659159 -0.211932 -0.133188 0.00883327 -0.208692 -0.244998 0.00674102 -0.206326 
-0.236083 0.0125544 -0.208401 -0.226967 0.0129592 -0.000343054 -0.168956 0.0100383 -0.205061 
-0.225197 0.0142565 -0.0898818 -0.206062 0.00559724 -0.202481 -0.179997 0.00773723 -0.202531 
-0.159337 0.00758782 -0.203836 -0.234447 0.0114154 -0.198636 -0.157776 0.0137831 -0.0210795 
-0.193101 0.00625761 -0.202214 -0.134143 0.0113814 -0.199056 -0.244073 0.00699212 -0.196305 
-0.172511 0.00852445 -0.195599 -0.152258 0.00734434 -0.195068 -0.141625 0.00604512 -0.193925 
-0.235957 0.0144855 -0.119239 -0.213865 0.0125067 -0.243777 -0.184225 0.0110311 -0.193924 
-0.23553 0.00634474 -0.190107 -0.225471 0.00483613 -0.19044 -0.203165 0.00523164 -0.191974 
-0.162258 0.00769885 -0.193073 -0.244965 0.0113044 -0.187251 -0.13024 0.0103462 -0.189898 
-0.192806 0.011918 -0.119501 -0.195435 0.00506519 -0.185641 -0.15664 0.00540966 -0.185079 
-0.136058 0.00653333 -0.17995 -0.208195 0.00812017 -0.183803 -0.184492 0.0110457 -0.182641 
-0.138136 0.0144791 -0.0998191 -0.145476 0.00681514 -0.184317 -0.224965 0.00662425 -0.179912 
-0.215315 0.0053003 -0.177206 -0.19268 0.00492893 -0.175982 -0.161914 0.00790039 -0.175511 
-0.244975 0.00997662 -0.176557 -0.235008 0.00955356 -0.180517 -0.175573 0.014913 -0.0843136 
-0.146834 0.00596014 -0.172708 -0.238484 0.0126201 -0.169447 -0.228952 0.0102435 -0.171273 
-0.20461 0.0120813 -0.175355 -0.1976 0.0143319 -0.093742 -0.174343 0.00890875 -0.173419 
-0.133981 0.0116606 -0.17129 -0.244862 0.00847496 -0.162772 -0.219195 0.00977566 -0.16913 
-0.179148 0.00759822 -0.164358 -0.163475 0.00572515 -0.164922 -0.152491 0.00558221 -0.164392 
-0.131046 0.01361 -0.137372 -0.207834 0.00678363 -0.166912 -0.18868 0.00781172 -0.167241 
-0.227155 0.00636594 -0.161838 -0.142266 0.00582609 -0.16333 -0.235945 0.0126568 -0.159789 
-0.15631 0.013398 -0.159108 -0.214196 0.00750544 -0.159181 -0.190198 0.00662476 -0.156846 
-0.165254 0.00823808 -0.15501 -0.224596 0.0136551 -0.153257 -0.141605 0.0126563 -0.156015 
-0.132163 0.00960836 -0.15375 -0.235274 0.00503428 -0.1513 -0.245007 0.00629168 -0.149424 
-0.206756 0.00589598 -0.147905 -0.196833 0.00847999 -0.148433 -0.17813 0.00462001 -0.148905 
-0.155339 0.00843806 -0.148547 -0.244519 0.00501476 -0.139167 -0.22586 0.00552997 -0.143356 
-0.147681 0.00506056 -0.143097 -0.136873 0.00691577 -0.145374 -0.235479 0.00934746 -0.139894 
-0.213326 0.0135323 -0.143079 -0.187697 0.0110639 -0.144864 -0.16523 0.0055282 -0.141536 
-0.186194 0.0062966 -0.135882 -0.176329 0.00612978 -0.137401 -0.209417 0.0114666 -0.134056 
-0.200719 0.0112427 -0.139067 -0.22229 0.00467796 -0.132591 -0.195975 0.00749698 -0.130789 
-0.232043 0.00857333 -0.130533 -0.163572 0.00863678 -0.131163 -0.154324 0.0119723 -0.128414 
-0.184167 0.0145056 -0.155305 -0.135461 0.00957595 -0.129366 -0.244979 0.00620265 -0.124196 
-0.214052 0.0071763 -0.125036 -0.203612 0.00595706 -0.123578 -0.148023 0.014869 -0.243714 
-0.17063 0.0130593 -0.119742 -0.141674 0.010193 -0.121555 -0.235146 0.00605831 -0.11382 
-0.212515 0.0075364 -0.115161 -0.131282 0.00788578 -0.119796 -0.223512 0.00842929 -0.118273 
-0.202894 0.0143161 -0.115082 -0.182902 0.00518375 -0.120704 -0.193767 0.00627482 -0.111304 
-0.165507 0.0063741 -0.113555 -0.149229 0.00629388 -0.108598 -0.131486 0.0103791 -0.108916 
-0.175637 0.00670643 -0.113897 -0.22872 0.00802288 -0.106239 -0.218185 0.00682882 -0.105631 
-0.20454 0.00727973 -0.106696 -0.183753 0.00794382 -0.107578 -0.157724 0.00702425 -0.103269 
-0.139713 0.00558869 -0.104599 -0.238204 0.0126145 -0.106136 -0.169877 0.0121963 -0.105239 
-0.22354 0.00752545 -0.0970802 -0.192125 0.00769333 -0.101267 -0.166933 0.00525067 -0.0985483 
-0.146257 0.00508507 -0.0965399 -0.231686 0.0152665 -0.0980617 -0.153252 0.0124303 -0.0960767 
-0.23688 0.00702184 -0.0956885 -0.214682 0.00743771 -0.0924289 -0.203185 0.0059382 -0.0947202 
-0.135903 0.00595992 -0.0950853 -0.182782 0.00608607 -0.0973433 -0.174076 0.0114681 -0.0947676 
-0.136882 0.0152461 -0.0894542 -0.244981 0.00644152 -0.0897165 -0.236398 0.0102042 -0.0860868 
-0.226662 0.00471178 -0.0866152 -0.143794 0.00687199 -0.0867394 -0.133932 0.00611161 -0.0852896 
-0.204531 0.0128497 -0.0862894 -0.193512 0.00473941 -0.0893165 -0.164171 0.00892735 -0.0894757 
-0.222345 0.0143055 -0.0123167 -0.24475 0.00576353 -0.0790182 -0.173925 0.00493943 -0.0842823 
-0.15611 0.00666985 -0.0839107 -0.218282 0.0105143 -0.0834486 -0.18413 0.00756439 -0.0792995 
-0.166292 0.00837325 -0.078743 -0.15761 0.00751836 -0.0737171 -0.139917 0.00661579 -0.0768814 
-0.23002 0.0119302 -0.0784684 -0.196749 0.0120522 -0.0751486 -0.215204 0.00500344 -0.0699761 
-0.183102 0.0083159 -0.0682176 -0.173522 0.00576159 -0.0718608 -0.147965 0.00849338 -0.071168 
-0.24278 0.00902143 -0.069565 -0.227545 0.00805991 -0.0676198 -0.206704 0.0128372 -0.0725402 
-0.140634 0.0144564 -0.0677231 -0.208527 0.00872086 -0.0604146 -0.196345 0.00545428 -0.0625867 
-0.16542 0.0071144 -0.0658334 -0.15562 0.00574474 -0.0636932 -0.136805 0.0054716 -0.0639722 
-0.218201 0.00707913 -0.0579952 -0.173201 0.0101472 -0.0600363 -0.16038 0.00842851 -0.0539618 
-0.147405 0.00654387 -0.0572265 -0.244968 0.00661549 -0.0574513 -0.228321 0.00617852 -0.0577426 
-0.166366 0.0144782 -0.168954 -0.183019 0.0117634 -0.0545993 -0.236563 0.00618228 -0.0520229 
-0.210395 0.00812293 -0.0506285 -0.198803 0.00799296 -0.0518776 -0.169499 0.00545749 -0.0496764 
-0.140819 0.00606846 -0.0496971 -0.130825 0.0083496 -0.0550302 -0.22305 0.00511204 -0.0492335 
-0.187559 0.0138018 -0.206279 -0.139517 0.0126349 -0.0574026 -0.23151 0.00741899 -0.0429361 
-0.192994 0.00672227 -0.0431244 -0.178978 0.00635578 -0.0445917 -0.151484 0.0066951 -0.0481195 
-0.18765 0.0140775 -0.216274 -0.161084 0.00803041 -0.0439932 -0.135038 0.0137892 -0.046716 
-0.244864 0.00510822 -0.0418821 -0.202888 0.00596293 -0.0421225 -0.141847 0.00653998 -0.0392434 
-0.221197 0.00926841 -0.0403034 -0.211511 0.0116927 -0.0413709 -0.17089 0.00899987 -0.039174 
-0.146411 0.0150079 -0.0448412 -0.135147 0.0138709 -0.035827 -0.232687 0.0125773 -0.0344376 
-0.211343 0.00566342 -0.0324743 -0.190865 0.00578366 -0.033406 -0.180908 0.00709122 -0.0329167 
-0.161098 0.00843932 -0.030567 -0.15108 0.00656599 -0.0339792 -0.233282 0.00736603 -0.0259103 
-0.199979 0.00674491 -0.0272296 -0.243092 0.00867228 -0.0295825 -0.222941 0.0107407 -0.0300134 
-0.244714 0.0143764 -0.0378005 -0.17136 0.00461091 -0.0291098 -0.143109 0.0105564 -0.0253106 
-0.244987 0.00780641 -0.0196688 -0.223168 0.00700679 -0.0207432 -0.213204 0.0071914 -0.0222591 
-0.190641 0.00566902 -0.0234098 -0.180394 0.00545249 -0.0230413 -0.163998 0.0059047 -0.0203413 
-0.134189 0.00606222 -0.0245914 -0.195889 0.0127087 -0.0184935 -0.151782 0.00574288 -0.0238774 
-0.235332 0.00721813 -0.0161233 -0.203632 0.0064234 -0.0166603 -0.18581 0.00662884 -0.0146942 
-0.1545 0.00778053 -0.0130797 -0.175022 0.0100102 -0.0159005 -0.148187 0.0142518 -0.0175112 
-0.135841 0.013158 -0.0177494 -0.245003 0.00681617 -0.00931675 -0.227865 0.0063522 -0.00953552 
-0.210695 0.00547541 -0.00909241 -0.194566 0.00783097 -0.00986132 -0.169751 0.00770373 -0.00767897 
-0.135642 0.00616056 -0.00742217 -0.195636 0.0141957 -0.181582 -0.244996 0.0128304 -0.0491057 
-0.200413 0.0130462 -0.197614 -0.162396 0.0145023 -0.0111535 -0.14515 0.00908882 -0.00899257 
-0.21935 0.00748712 -0.00384833 -0.20506 0.0134544 -0.154947 -0.163044 0.0147387 -0.147703 
-0.179556 0.0059586 -0.00667424 -0.160778 0.00788526 -0.00331233 -0.24359 0.0146867 -0.00251464 
-0.187748 0.00960188 -0.00158982 -0.152513 0.0145186 -0.183769 -0.183648 0.0131828 -0.127007 
-0.173307 0.0114138 -0.129458 -0.197572 0.0138264 -0.033926 -0.206683 0.0145483 -0.0240634 
-0.131088 0.00976061 -0.0732186 -0.184254 0.0116089 -0.0884654 -0.152294 0.0150337 -0.05954 
-0.181096 0.0151997 -0.136622 -0.171601 0.0131297 -0.142802 -0.211752 0.0142187 -0.100988 
-0.244794 0.0146872 -0.0979851 -0.24491 0.00529578 0.00306281 -0.195512 0.0053786 0.00314426 
-0.172786 0.00650899 0.00189316 -0.154904 0.00622172 0.0046819 -0.199384 0.0140901 0.20587 
-0.130576 0.00608772 0.00396308 -0.157743 0.0147449 0.217139 -0.205739 0.00736347 0.000163227 
-0.133208 0.0141608 0.122988 -0.217077 0.0146503 0.112088 -0.2195 0.00734546 0.00893363 
-0.205241 0.00583348 0.0100533 -0.164144 0.0069297 0.00844463 -0.146098 0.00623134 0.00942202 
-0.23474 0.012231 0.00842425 -0.225587 0.0149206 0.0114279 -0.186852 0.00462315 0.00815931 
-0.244756 0.0138322 0.00848103 -0.132549 0.0117874 0.0120541 -0.17464 0.0068759 0.0116921 
[...]
POINT_DATA 4287
FIELD FieldData 3
id 1 4287 int
1313 469 3483 3891 1792 1786 480 2638 3066 
2693 920 464 14 2215 1366 2271 5 487 
917 474 12 1354 3927 2640 453 1325 482 
538 3053 3950 475 3494 1783 2216 1750 2217 
3898 7 3502 3922 2601 2606 3542 3056 451 
1337 3988 54 897 1776 912 3 3484 1363 
3077 1761 2630 1757 454 2628 486 477 3624 
3504 3489 3487 907 1752 13 2256 1797 2603 
3893 1420 492 531 3492 3473 488 1413 1350 
40 2632 918 39 871 3115 1782 3465 16 
47 1799 15 1320 3495 3486 3471 2197 597 
177 3074 3511 2623 3059 2625 181 3061 62 
2198 3926 1846 1012 3035 63 3931 2207 3925 
2631 46 1310 3027 4047 1762 2218 1775 3545 
877 1348 1345 2220 910 1781 2644 1339 590 
2221 1418 3469 881 3896 3543 3472 2641 898 
3923 576 3938 1346 602 3900 2629 1416 2764 
3057 1759 2646 2208 1798 2602 1349 1342 49 
3078 1406 913 3196 3076 58 483 2639 1898 
2636 3482 1849 2328 1361 3943 1316 3079 3186 
1753 2698 2184 3052 467 2180 868 3028 35 
905 1852 1844 1352 1795 446 1787 2755 2342 
2211 2599 1479 1924 479 2199 1314 1005 3159 
1758 1784 3611 1904 473 11 1467 3932 3463 
3982 1360 3112 3182 3062 3050 3461 4 2600 
3935 2326 1905 1755 3592 599 3928 3899 2223 
3940 1311 3892 3607 3058 3032 490 1340 873 
3069 3033 1347 51 3030 34 2604 1765 869 
874 3054 3951 3508 3905 510 2213 2626 169 
1351 3506 485 1401 55 4049 2321 2205 2642 
3104 2605 218 198 3070 42 2182 3934 1889 
3467 1338 3189 44 3558 38 50 2214 904 
1884 1375 1834 2694 59 3544 448 2649 3071 
2200 77 3108 2659 2664 3961 209 1369 1318 
1389 3479 953 3521 885 625 1397 2637 3919 
89 1085 3897 2650 462 1895 3213 3958 4026 
1836 878 74 3520 634 504 1359 2236 3229 
1396 81 2655 30 3963 1328 4094 3202 3044 
3957 3105 4009 3635 2617 498 2356 3233 33 
449 88 1811 938 3477 17 2250 3917 2669 
4103 2804 882 3145 1069 4082 931 3973 892 
2225 215 3541 3141 4104 2203 1394 1823 70 
2288 3968 1819 1827 2662 2653 2379 136 1813 
2235 3571 933 1822 3094 558 3518 3041 86 
2708 1332 3570 3530 936 3093 4106 3228 2663 
187 3975 1053 3099 886 2233 66 2661 3979 
3955 91 1381 496 2672 2363 1388 505 2204 
2654 93 461 4017 2791 1833 18 4024 84 
2244 1373 1828 1392 548 2253 3914 1831 1807 
3110 2242 1862 1331 2615 643 1376 1826 2690 
1076 1384 3474 2665 515 1809 2189 1771 3524 
463 199 647 1336 1808 27 1063 1334 2619 
3912 43 495 522 628 1429 3039 3981 3916 
514 2252 567 1378 3478 2188 4091 2783 1383 
2651 2186 518 3043 3526 3539 929 3064 3970 
1499 2193 3952 3960 216 3533 521 2671 78 
32 1377 3083 2769 2713 3098 3086 79 990 
956 2610 2768 895 500 1764 25 2231 2190 
2612 3971 2678 893 1959 949 1391 1821 1817 
894 95 1816 2243 3967 458 1815 3090 513 
3911 1773 3089 2614 3966 1372 501 1335 1766 
1874 3097 2232 2192 3959 3084 457 517 3540 
1930 4097 506 934 945 932 193 2224 3976 
3107 2226 2675 94 891 90 1062 992 2187 
3528 85 1810 1516 519 497 3085 3906 1387 
3953 3538 927 942 28 930 19 3515 68 
3092 72 2618 2248 3063 2178 493 4004 8 
3187 1477 3034 870 484 3939 2209 901 3933 
1749 3930 879 1777 2210 2681 1774 3024 142 
919 1319 1403 3025 3038 2607 3029 1353 1341 
3460 445 60 3490 3946 99 2176 2635 3895 
3902 3051 1800 3470 3065 911 2201 2624 1312 
3466 3037 1321 1032 2195 2627 2325 52 481 
880 466 3068 2634 1778 596 53 1915 586 
1793 471 444 3509 925 1358 3462 2622 2212 
1044 1364 37 491 2177 1322 2222 961 144 
1796 4034 96 1317 3049 1371 465 1789 876 
2185 1801 906 614 1756 1365 970 3055 1794 
1751 3498 1837 921 915 3894 2181 1791 3609 
1411 3937 909 3941 3491 3929 468 450 899 
1031 1355 591 2645 10 1315 9 1 1309 
3630 2620 872 2647 594 902 3163 3468 1357 
176 2196 3944 36 1856 1788 3947 3026 3120 
45 960 3116 1362 3459 900 1473 2643 3060 
3036 1785 3904 1443 2699 1838 2598 3903 2219 
2183 3510 3994 476 452 581 489 2202 3485 
41 922 2621 1408 1779 3503 1019 2732 2756 
2314 2597 1343 1323 3945 3992 926 3497 2336 
470 67 22 3464 889 2246 2299 3532 3476 
3918 1824 3047 3924 1054 2633 511 3031 2 
935 69 80 951 2608 3516 883 4076 1876 
947 923 1802 92 460 2238 3949 211 1367 
890 2677 2668 75 3980 1393 509 2652 943 
4087 3965 1820 2667 3978 2249 3936 4080 64 
1330 512 3480 2609 3512 1374 940 1427 941 
3095 2374 3081 3517 950 1370 1329 896 1501 
3537 948 2670 1814 3522 2679 1424 4083 3910 
3969 3527 1763 559 3106 1511 2660 888 3666 
3088 21 508 3087 1333 499 3529 523 3907 
3657 1812 984 1963 2239 2251 520 2247 944 
3534 1829 23 3921 1382 2237 2676 3475 952 
217 1051 3091 937 494 1059 3048 3531 2658 
1385 2613 3915 2805 2229 2230 4074 3523 3082 
2254 1390 3972 3109 1386 76 2234 2241 1423 
189 1327 2240 1770 3100 2673 3111 2227 87 
954 3920 503 3142 3964 1395 1769 2657 2674 
939 2228 884 3102 1772 1326 1518 71 1061 
3046 3045 507 24 3569 3525 3101 1943 4089 
1767 916 3643 2611 3954 3962 20 459 1830 
2666 3080 2280 516 29 206 3513 3103 2179 
456 2656 2191 1060 887 1805 126 1768 4111 
1368 1026 2759 48 3620 2317 158 3133 1803 
3557 3126 1455 2451 166 3564 1461 2316 1854 
2009 3162 1841 3631 3627 1882 171 1842 1100 
2767 1023 1344 3622 3604 1040 978 2683 2012 
2333 3619 2750 61 2324 1486 3184 2403 1011 
574 3075 1028 2329 1035 601 1024 1447 3547 
1410 2728 306 3190 3550 2507 2323 1016 3178 
2822 1903 3119 2340 1020 3554 112 3180 4055 
1402 1037 2331 1845 103 274 3596 2464 1027 
1412 2270 1445 2736 117 295 3556 1899 2311 
3761 1919 2264 447 963 573 3166 2327 2697 
3616 2267 179 535 178 3610 584 4039 1896 
111 4066 962 2301 2889 1468 600 4065 3174 
4068 908 1460 2733 4030 1890 183 598 583 
4036 2687 572 578 3175 1483 3129 528 107 
4067 3728 2265 959 2757 4054 971 4050 156 
588 3987 4037 545 1014 957 3165 3113 3067 
4003 2305 1891 1971 968 4053 2761 524 2307 
3188 1902 2691 1456 1030 3127 3997 165 903 
3181 3134 2269 3169 575 1888 2387 4043 3606 
1908 3591 2275 745 3623 1988 2320 2274 116 
4052 3615 3125 2749 3598 2263 2726 1041 3199 
3200 3603 167 105 1452 539 2696 530 3121 
1760 1034 2695 2332 2339 544 595 3198 3593 
2746 3548 2341 1858 547 1482 108 170 115 
4038 4048 580 4005 2752 966 1036 2648 1883 
4198 1029 154 1018 533 2741 1923 1010 2258 
4045 1843 98 114 979 3128 1459 537 1006 
159 4062 593 3985 3605 2692 3608 1039 976 
2257 3170 3613 2734 1906 1004 4046 532 577 
3549 924 3590 1840 1444 3561 3562 3595 1472 
1417 1485 3553 3193 2255 3594 3167 1922 1043 
2702 3205 1637 2306 3168 184 3629 1013 1058 
609 3559 2041 472 110 542 2758 1419 2334 
1454 3690 2922 1141 3183 3191 2322 2344 3160 
965 2731 3565 1948 2351 1914 1453 3665 1471 
146 975 145 113 553 346 4063 4069 1400 
2740 1407 1356 175 1188 3192 3185 82 4007 
2688 1916 1920 2354 2709 3209 57 2295 201 
3671 1865 654 2771 118 1457 2319 653 3146 
1475 4108 4035 1440 122 1942 3236 4071 2742 
3650 1025 1619 1947 3158 120 980 4077 1048 
192 1194 3147 2706 3212 2503 1379 3645 190 
4014 1087 3194 3157 1938 3235 3280 129 1437 
3791 1528 2194 635 1878 2786 3206 185 630 
3154 3137 2704 618 3573 3231 2792 2910 1074 
4090 3217 1957 3218 646 2723 620 2425 1990 
655 983 1951 130 3222 3135 619 3221 4020 
124 2376 3647 757 3148 3574 1526 2300 123 
3242 1084 2282 3673 3649 1558 2291 2352 1497 
1057 229 616 995 3207 2348 1505 3140 3646 
1426 2292 2806 1925 210 205 2916 1966 2777 
1441 2703 3773 3585 570 4010 987 3637 551 
1804 4081 3223 1941 2773 997 1123 2069 135 
3668 200 3653 3656 651 2384 1859 549 2724 
3579 1438 219 4028 563 321 2293 1945 629 
1442 2720 1000 633 2358 1432 139 2710 1494 
140 2719 3662 2297 2373 1523 1932 1995 1064 
4153 981 1879 568 617 4096 2722 3581 1380 
4084 202 564 121 4199 1001 569 214 2284 
2347 4092 1075 1524 3214 3240 3583 1962 2364 
2357 2785 1055 571 1436 3568 3481 1520 4088 
1077 1046 2800 1086 204 1965 1002 1954 2285 
2778 3576 1527 4085 1073 1953 645 1498 1066 
1946 1435 1875 556 2279 3536 1433 3586 1514 
1490 4021 3237 207 227 3136 644 1496 1997 
1961 2707 3143 2385 143 225 1071 2809 626 
2386 1508 4107 3203 131 1079 3670 1958 985 
4012 1504 3632 1870 3909 4102 1049 4100 2795 
197 998 1869 1877 138 1960 137 649 1489 
3204 1522 627 2501 1956 1491 2714 554 3913 
3634 132 4022 31 3566 3577 986 1493 3633 
2383 4023 4112 3230 3243 212 3659 2378 1422 
1872 4027 1509 3778 1934 928 2705 4109 2716 
2298 3224 1866 2287 3648 2784 1573 191 2362 
1082 1825 955 4098 1131 3716 639 1476 4033 
525 589 3179 4115 2310 1449 2273 3600 529 
4064 2760 1855 1894 150 3993 3164 3612 1847 
4029 2315 2754 2042 1404 526 3215 977 3983 
969 160 3942 967 1009 974 1907 607 1892 
3161 2727 2343 2408 1448 1015 4001 608 1324 
3560 2729 2730 106 4041 2738 1398 3998 2743 
606 3173 4058 186 1480 2302 1117 4187 2337 
2762 604 3171 973 579 3302 2312 281 1887 
4060 3496 4031 2353 3617 1918 2259 4002 2462 
1405 1536 182 612 3197 3201 3996 3172 172 
1038 1163 161 1464 1897 2700 1754 188 1886 
3621 109 3760 541 2309 2735 2398 3599 1911 
734 3177 3984 2744 1409 101 3122 2803 1478 
1463 2040 3628 3692 180 914 1848 2685 4172 
3265 3124 3688 1466 603 1022 168 222 3948 
1913 2277 3022 972 1851 308 2861 1853 3130 
1912 587 102 3614 1428 3493 151 3195 3618 
2260 540 1900 162 1885 1450 543 4056 585 
2396 2308 1430 613 875 3995 592 3625 157 
1917 1042 3990 4051 1415 4174 1901 1399 2682 
2701 652 2268 1517 2276 2766 2753 1521 2261 
155 4057 546 1462 4000 163 4171 2686 1465 
149 3552 958 1579 2206 1003 2725 147 1839 
152 1921 2739 1451 3551 1867 1446 1850 3555 
2272 1893 527 4061 3131 2684 1495 1484 1857 
6 1470 2266 2367 623 1937 1790 4006 1510 
996 4025 4040 1512 4042 257 761 4008 1950 
2278 1033 1659 220 3908 196 3654 2780 3220 
2368 4110 3956 3672 982 2616 195 4230 2056 
194 3567 153 2718 4011 2798 133 4073 100 
1565 315 1944 641 4212 1506 1926 4015 3208 
1868 4075 1955 3138 3584 2290 127 3040 1881 
4078 3663 2802 2286 228 3639 4013 213 3644 
3519 125 1067 455 3241 1936 3587 1502 2721 
1487 3227 1081 552 3152 2369 2807 2355 340 
134 3641 2380 1500 1873 632 565 3144 3211 
3655 83 3216 1431 1861 3578 679 2283 3364 
3642 3582 2782 557 2781 221 208 648 224 
3661 2505 1513 3149 621 566 3589 642 3636 
1649 2345 1871 268 2779 3096 3669 502 637 
2366 994 656 2799 946 991 2359 2774 3651 
141 3977 562 2245 1492 3575 4018 1488 1880 
2801 2350 3153 2789 560 1434 65 1211 128 
2370 636 2361 1927 3658 3155 2371 2772 3139 
2372 1832 638 2790 1933 2794 4093 1070 2712 
203 640 1949 615 631 3156 550 2294 1928 
1065 1191 4079 3234 1935 1515 2793 2808 3219 
993 1078 3535 2349 1080 1047 2296 1056 561 
2717 3238 3225 1552 2453 1981 310 674 964 
725 3316 3755 1689 1835 705 233 1588 4179 
2313 3597 3294 710 1147 1989 1021 1109 1604 
4192 610 1093 1469 97 668 248 2814 2397 
2745 2875 247 2466 735 2872 2432 2827 1103 
3986 2824 703 3846 4180 4197 2887 2539 1610 
1166 3261 1581 1169 536 4158 3251 3291 4173 
1007 2448 3314 3176 3323 4125 3262 1977 1551 
2037 4188 2303 2441 3687 2816 4166 4162 2033 
611 1110 1542 2400 714 2818 2473 1173 3290 
4190 669 2014 298 2434 3322 2819 3117 711 
534 3304 665 4116 2879 2020 731 2894 1530 
2405 1972 2564 1094 2973 3679 3721 739 232 
1138 3315 4120 1982 2859 1611 4194 4117 3742 
3546 297 3726 1595 4122 719 4191 2456 3298 
4169 2468 3312 2438 675 1158 2015 243 1591 
3757 289 2829 3313 240 1474 1968 238 291 
3327 1149 280 3330 2880 2888 1598 1605 706 
2465 3301 3695 2895 1909 3310 2446 1162 1578 
3745 4182 1589 1155 1146 3309 1976 3743 305 
3751 3744 408 2878 2452 3747 1535 2440 1590 
1458 3681 740 293 2407 732 3683 1615 273 
3308 104 4167 2830 2813 309 3694 2390 661 
1975 304 1017 605 1170 301 2028 3758 2886 
2330 2038 2874 2262 3693 246 3295 1983 727 
3232 2021 2460 713 4159 2811 1008 716 4183 
2388 1096 3311 1154 1097 279 1105 3307 726 
736 1984 307 2018 3682 3325 1090 2023 4184 
2831 3250 2826 1161 164 2860 3722 1607 2084 
1143 251 1135 3248 119 1970 1156 1986 4189 
722 1098 2883 4127 2444 3691 2890 2436 3723 
1534 337 4119 2045 3324 4287 2763 3763 2891 
4296 2817 2008 1101 1539 2897 3563 2892 290 
300 3260 2402 4129 278 236 296 2022 2470 
265 3753 715 3264 3759 3259 3334 2005 3256 
1654 2487 1929 3281 2039 1657 4132 1151 314 
1608 2389 3680 3423 2449 4141 3328 2765 2828 
1529 4181 737 4185 1139 250 174 4131 338 
2876 3674 1174 2437 724 2445 2991 3292 282 
286 2435 311 3342 2925 3336 2024 1167 2393 
2854 2535 344 2065 1197 2064 2054 3273 2413 
582 555 3333 2382 2905 1136 1632 3351 3798 
4205 1210 777 372 2843 4232 385 1991 4231 
691 773 1647 1092 2504 259 1208 2463 3278 
3999 2087 2914 3794 3640 319 3707 2900 332 
2049 2855 3702 2903 4152 255 3379 2164 2043 
3765 4228 2852 3795 3331 1213 3353 2426 3275 
2474 1644 253 1119 771 342 1563 687 3784 
2934 4138 1561 2939 2419 2838 3703 3352 4146 
2060 765 341 1068 695 4215 681 4147 776 
2834 330 4216 1192 2508 686 1102 4150 689 
3345 323 2901 3770 327 2485 1623 744 2001 
1128 2500 2480 2856 1195 2512 2497 3775 693 
2842 2839 2003 2930 1124 2420 3341 4156 2776 
3151 316 1650 3226 2841 1206 2917 762 2833 
3772 1994 3271 3771 1567 335 3783 223 1201 
2414 2788 2509 781 3781 2797 1653 4224 2416 
331 1656 682 2455 3701 318 4086 3712 2498 
2051 1190 1651 2074 2510 2913 3711 847 2086 
3239 2908 1132 4236 2067 4206 748 2715 1115 
4221 2377 4222 3788 3799 1628 1568 3360 4072 
329 266 1129 4210 3362 1122 1178 3652 690 
3284 2926 2496 3660 2787 3719 324 2429 3803 
334 768 3804 3274 747 3283 347 749 3698 
2489 317 1177 1645 764 775 326 2932 1863 
3346 4151 4019 1203 1118 3708 1572 2511 1621 
1184 3769 1182 989 2494 328 3785 1112 4207 
2853 3388 1560 678 2846 1952 2085 3819 1629 
1200 4095 2410 759 1996 2492 2375 1503 694 
258 2770 3704 1209 2906 2053 3700 1181 2589 
4155 345 1566 2078 1564 3337 3277 2711 2478 
1626 2923 746 3371 1635 226 3664 2907 4217 
699 2514 2488 3276 1072 3272 1630 742 4229 
1999 2082 4226 3361 336 1682 4136 4143 624 
2796 263 1562 3332 2937 3801 1421 3720 333 
1176 3449 758 2061 3282 2424 3823 4144 1627 
355 4044 2154 3580 2083 1633 743 696 1121 
2415 2068 4149 688 4148 2418 1481 4196 2871 
1612 2820 2442 2896 1267 1584 3991 285 3255 
2017 2884 3118 1910 4164 712 4175 3252 2013 
2044 680 3321 1108 2810 2080 4070 3746 729 
2019 3254 3303 3689 3319 2680 3677 1548 1540 
4193 3725 730 2862 245 2812 1148 1582 2954 
3686 2318 1164 2870 4176 709 4134 3246 4105 
1140 2747 249 3731 4177 659 662 235 4121 
2007 663 3989 660 2867 1585 670 4145 738 
3762 1973 1533 1609 2938 4032 3730 3293 3602 
1532 3752 1547 244 4130 2873 2026 3740 2338 
3263 3368 4168 4284 3697 1599 2821 3678 3756 
3727 704 299 1593 2394 3247 2459 3257 1165 
3318 241 1613 2036 3754 733 3675 1979 173 
3132 2823 1134 1969 1592 1107 2457 1089 3684 
3244 2404 1104 1714 2689 2443 2304 3306 2863 
1088 720 1641 1168 707 252 2071 3626 1150 
287 1145 1974 3245 2454 2877 2748 148 4118 
1586 2472 1538 4160 4113 2433 1583 671 1142 
2868 4161 277 3709 4218 3676 3317 821 2737 
677 3737 2447 2010 1157 3296 3738 3750 2751 
3114 3732 2467 231 3774 3768 1616 2815 723 
239 1160 2881 1576 672 2885 1133 1144 3300 
4059 3258 1617 728 4126 1596 3733 3821 1099 
4165 2335 1531 3729 283 3601 3734 2027 1414 
1987 3338 3828 1931 4233 2050 1603 1052 988 
999 1159 2850 2882 2832 2360 3340 4203 1571 
1587 1113 3879 3572 4238 4170 1864 684 1179 
267 3365 2289 1967 2775 4123 774 2479 4099 
3287 1556 325 3335 1126 3797 4225 1642 242 
2281 1202 2502 1050 1294 2865 2844 2088 2911 
2915 1648 2847 3370 3354 1640 697 778 339 
2935 2929 1425 2481 3369 2933 354 1198 2346 
1214 2006 4139 2918 3710 2899 1130 3792 751 
4223 1634 4237 1939 3358 2837 1655 1525 767 
272 343 1300 270 3279 2421 4016 320 3714 
3715 2477 4202 3366 753 3706 3705 1574 2506 
350 752 779 2076 4200 2079 2002 1620 2423 
1215 1289 352 3713 2062 4325 2904 3588 2428 
4154 1643 2484 1575 2513 4239 2411 2427 1638 
1193 772 2000 1045 3356 3786 766 3871 1860 
3350 622 1940 650 2052 269 1631 2835 4318 
2059 3150 2365 2381 2055 322 1185 3359 3270 
1439 2927 3638 4137 4211 755 4271 264 3790 
763 3363 1507 1120 2431 4227 3667 2845 698 
1992 3288 348 1636 3267 3286 4235 3764 1095 
303 1205 3349 1114 1083 1196 1646 1212 3343 
4101 1559 4234 756 3796 2046 760 4213 2919 
382 1199 254 1183 1667 2552 401 2970 2048 
1661 2857 292 4178 2117 815 2011 276 2551 
1706 2898 4247 3424 2958 791 275 784 4300 
1266 2143 2118 3289 3299 4135 3735 4274 836 
667 230 1537 367 2047 3842 854 1541 2128 
3374 3404 3748 1544 700 2963 2138 2548 3854 
1224 4254 3850 1550 2950 1255 831 2543 3829 
2391 2141 2123 1268 4245 2122 3845 2099 1261 
368 786 2523 2983 3382 788 1219 3380 2025 
2866 1106 2401 2145 1256 1696 2542 813 364 
1594 1227 2988 2979 4273 2406 3856 2561 702 
807 2952 302 237 4292 1271 357 811 1978 
1153 829 400 4276 2144 1712 3253 2547 2545 
389 3841 2864 3443 1171 3266 313 2032 812 
2093 2944 826 392 1226 3833 388 3378 1546 
2976 3844 1218 1600 2524 3405 390 2521 1715 
2974 4249 2125 825 1693 4246 3249 284 1225 
3408 2942 3384 2392 1669 2546 2130 2825 816 
2949 4244 4240 3852 2439 833 1252 2951 4297 
3381 3807 2966 2137 796 1277 2031 2990 2471 
3812 4281 2091 407 4299 4255 2121 1230 657 
782 1710 369 2520 2975 4251 666 2987 234 
2136 2962 2969 3018 2030 2941 1270 3847 787 
3420 1690 1580 2140 2982 4301 790 3417 2540 
2131 1601 4295 3749 3831 393 827 1702 409 
1672 3837 1262 405 806 1700 404 4298 1698 
1251 2399 2531 3835 387 3853 717 828 2893 
809 1260 2469 1264 1699 4294 2978 1223 2559 
1248 2526 1549 4252 3851 3329 4124 3808 412 
820 3376 2518 1249 835 1694 3809 4285 2120 
2869 1692 721 4278 1670 402 1228 1229 673 
1091 2967 410 294 3305 2980 288 4243 1246 
3425 2119 2100 2989 838 4272 4280 4288 1263 
817 4195 2560 2126 3003 2984 3724 2167 658 
3875 2953 2515 1250 2098 701 792 2587 3418 
2985 4261 1709 2971 795 2412 1739 2596 3881 
3848 1731 3426 375 4308 864 4307 1569 1685 
2114 4290 440 4286 3355 2458 840 1678 1274 
2549 3805 4324 4263 1622 1295 1243 4328 2109 
797 2104 1259 4312 413 1555 4114 3815 3441 
1741 3789 1303 2124 1293 2169 3389 4264 1681 
2994 837 3890 2528 2483 1720 1204 349 3348 
2931 2106 2147 1553 3874 4320 2992 3021 848 
2105 1305 3884 1236 804 2173 2151 3699 1233 
1993 2579 3458 1683 865 3268 435 2572 793 
3429 428 1234 2995 1554 4326 2532 380 2998 
3454 373 850 427 794 860 2108 1732 2573 
2158 1677 3014 2113 2101 2004 1742 4316 1286 
374 861 1680 2152 770 3814 2582 4259 3437 
3822 1304 1679 1242 2588 1187 853 262 4266 
3001 2170 2490 3446 1241 4306 1291 845 1231 
3344 3864 2920 419 415 1216 1719 3787 3015 
430 2172 2584 443 2534 416 1674 3887 2063 
1745 379 2148 801 2476 3776 1748 3005 3438 
2924 863 4201 2430 434 2575 2150 2146 2111 
376 769 4220 1747 802 1287 3357 1723 2486 
442 436 803 4208 1296 2999 685 2590 271 
1282 1298 3818 429 4313 2168 3006 2592 2840 
1733 2851 2495 378 4258 3339 2153 414 2475 
437 2159 3444 3020 425 852 1684 3394 1111 
3869 2961 2571 2997 2075 2395 4303 3456 3398 
1652 1737 2567 1730 3387 2959 1625 3448 856 
4265 3802 3455 1727 371 2174 3434 1736 1186 
3453 1299 3000 4204 3878 3019 3010 3433 2593 
1244 3457 3718 3450 1239 4209 3816 2586 3392 
2594 2936 862 2081 3817 1735 2849 1279 2568 
4330 858 3882 3888 2591 3367 2058 1658 2057 
3269 1308 1281 3870 2595 2928 1676 3012 417 
2171 3011 823 683 2110 1726 2529 1280 418 
1734 2538 3886 2570 692 867 3782 849 432 
2993 4268 2102 851 3777 1687 1189 1597 2097 
394 3412 1695 3377 2562 1660 2948 2541 4133 
3372 1985 366 2945 3383 4283 3739 2135 1269 
395 4186 708 1673 3839 384 2115 2972 381 
4282 1707 2134 1172 2409 4279 3413 3409 3810 
411 396 2563 2516 397 386 1276 1152 1543 
1980 2094 358 2550 4128 842 1713 3811 399 
1265 4163 3399 834 2544 4253 2090 1254 2968 
1606 810 2129 819 365 4293 1222 2556 363 
3834 3347 3403 3806 3428 2565 2029 3849 822 
1697 2035 3414 3326 4302 1688 2956 2527 2034 
1258 2127 406 2525 3857 3838 361 3297 4269 
3860 3859 3858 3415 2096 1257 1668 3843 359 
403 2095 3373 1662 808 1217 1602 1703 1666 
3402 1253 1711 1708 362 4248 3840 356 4241 
1272 2946 1175 664 3406 2537 1275 2522 3865 
3813 3416 1718 3400 824 4242 1663 1691 2092 
391 2116 2940 2981 3741 4275 4291 2557 2943 
2139 2450 3427 789 2996 2519 3421 2986 1545 
783 4277 4289 3422 1704 1705 2553 1701 2947 
1137 3855 2132 814 1671 1664 1665 3375 1717 
2461 1220 830 1716 4250 398 1278 3736 1577 
2517 2977 2142 1245 2902 2858 360 718 832 
3832 785 2133 2536 2558 3397 780 866 3007 
2964 2157 3320 2149 3410 2965 424 1283 1240 
2566 3873 1127 3395 3685 420 3407 2107 800 