# vtk DataFile Version 4.0
Generated by LIGGGHTS
ASCII
DATASET POLYDATA
POINTS 4276 float
-0.245004 0.00427563 -0.244984 -0.224747 0.00382903 -0.244063 -0.20139 0.00257544 -0.245003 
-0.159452 0.00403232 -0.240406 -0.145797 0.00596467 -0.243388 -0.234812 0.00523879 -0.244967 
-0.191497 0.00109018 -0.243983 -0.168834 0.00206088 -0.244708 -0.137329 0.00788914 -0.238403 
-0.22473 0.00682523 -0.233977 -0.146105 0.00834534 -0.232972 -0.245002 0.0010306 -0.23553 
-0.200399 0.0109394 -0.235403 -0.15584 0.00592367 -0.229263 -0.23351 0.00150352 -0.22548 
-0.224896 0.00711771 -0.22228 -0.207793 0.00905821 -0.227023 -0.193674 0.0073643 -0.22694 
-0.137326 0.00175348 -0.229462 -0.176777 0.00752282 -0.22773 -0.164833 0.00458466 -0.224221 
-0.149945 0.00476167 -0.221117 -0.218462 0.0146562 -0.219571 -0.185884 0.00384604 -0.221154 
-0.245013 0.00825364 -0.22713 -0.139568 0.00817357 -0.218597 -0.241722 0.00418578 -0.21629 
-0.20858 0.0136045 -0.217922 -0.229201 0.0073453 -0.212935 -0.196457 0.00940576 -0.214705 
-0.173549 0.000951244 -0.221152 -0.133784 0.00974086 -0.103543 -0.217089 0.00809567 -0.211777 
-0.187475 0.00885734 -0.208242 -0.173782 0.00560705 -0.209733 -0.163995 0.00442774 -0.207384 
-0.244695 0.00551201 -0.202648 -0.153954 0.00100452 -0.208819 -0.133238 0.00228618 -0.206121 
-0.224052 0.00487221 -0.204446 -0.207285 0.00727093 -0.209685 -0.198475 0.00579252 -0.204971 
-0.145337 0.00153333 -0.202548 -0.214541 0.00457409 -0.199642 -0.139708 0.0124196 -0.0914298 
-0.16816 0.0119087 -0.201178 -0.186063 0.00850591 -0.197853 -0.233134 0.00103912 -0.199691 
-0.20565 0.00913614 -0.19344 -0.164221 0.00567976 -0.194403 -0.154011 0.00107476 -0.197082 
-0.243049 0.0115938 -0.0548838 -0.15657 0.0124423 -0.0301153 -0.175072 0.00542283 -0.193784 
-0.132213 0.0095297 -0.195872 -0.244924 0.0104821 -0.185505 -0.223201 0.00844601 -0.194579 
-0.140439 0.00609697 -0.190226 -0.215379 0.0145379 -0.193141 -0.195567 0.00938283 -0.193445 
-0.159858 0.0133746 -0.189286 -0.212014 0.00779978 -0.185762 -0.19604 0.00883775 -0.180794 
-0.23371 0.00607597 -0.191163 -0.186171 0.00964028 -0.183017 -0.176414 0.0121653 -0.184402 
-0.167156 0.00784636 -0.185058 -0.149656 0.00752017 -0.185917 -0.234473 0.00964257 -0.204731 
-0.171749 0.0130237 -0.0552072 -0.131445 0.00970672 -0.224195 -0.134467 0.0126122 -0.185213 
-0.233494 0.00970069 -0.179769 -0.189866 0.00699793 -0.173134 -0.244463 0.00740218 -0.175637 
-0.156853 0.0077853 -0.17881 -0.221121 0.0134666 -0.185028 -0.168048 0.012683 -0.0795239 
-0.169124 0.0132854 -0.176331 -0.140466 0.00380262 -0.176972 -0.132243 0.00905687 -0.174695 
-0.227082 0.00888167 -0.17198 -0.216881 0.00731667 -0.17236 -0.207739 0.00630329 -0.176244 
-0.178585 0.0132075 -0.0695079 -0.179842 0.0096883 -0.174576 -0.162433 0.0065827 -0.170373 
-0.199693 0.0103655 -0.169194 -0.210626 0.00868356 -0.164628 -0.181821 0.00651946 -0.163679 
-0.172107 0.00813982 -0.168305 -0.136488 0.00715603 -0.164719 -0.244464 0.0115731 -0.164879 
-0.147268 0.00526274 -0.166419 -0.235127 0.00584022 -0.161206 -0.192067 0.00683134 -0.16231 
-0.172446 0.0083963 -0.158274 -0.157261 0.00488886 -0.16196 -0.154564 0.011796 -0.215155 
-0.219196 0.00533675 -0.160259 -0.202294 0.00979534 -0.158527 -0.131633 0.0142441 -0.244899 
-0.162397 0.0131418 -0.157195 -0.148267 0.00808874 -0.155665 -0.13154 0.00779961 -0.155851 
-0.244506 0.0144426 -0.152083 -0.226572 0.00484847 -0.152829 -0.19578 0.00964676 -0.150914 
-0.186309 0.00771473 -0.153581 -0.154926 0.00108953 -0.149834 -0.139597 0.00887888 -0.14923 
-0.21167 0.00920268 -0.15467 -0.221999 0.013251 -0.241345 -0.212115 0.00758191 -0.24417 
-0.23545 0.00835902 -0.149482 -0.204571 0.0054026 -0.148551 -0.216637 0.0102595 -0.0449891 
-0.22324 0.00298007 -0.14061 -0.162804 0.00843315 -0.146033 -0.148175 0.0131166 -0.146123 
-0.18814 0.0096836 -0.142999 -0.174006 0.0010627 -0.143061 -0.197942 0.0132962 -0.141674 
-0.154501 0.00504682 -0.140656 -0.244979 0.00204732 -0.136445 -0.233445 0.00512632 -0.135063 
-0.21322 0.00100015 -0.137678 -0.183087 0.00861815 -0.133627 -0.13689 0.00102189 -0.134653 
-0.203235 0.0010996 -0.136675 -0.194038 0.00766192 -0.133583 -0.16547 0.00497387 -0.134248 
-0.144975 0.00674803 -0.134958 -0.173701 0.00921525 -0.12951 -0.228293 0.0143448 -0.136513 
-0.212382 0.0106749 -0.130889 -0.154777 0.00625434 -0.13072 -0.135025 0.00893237 -0.126364 
-0.237452 0.00271692 -0.125371 -0.225338 0.00533124 -0.128298 -0.21877 0.00674738 -0.11928 
-0.208876 0.00643829 -0.122496 -0.191883 0.00288009 -0.124727 -0.153563 0.0050225 -0.120897 
-0.140214 0.013017 -0.117789 -0.182153 0.00106924 -0.122737 -0.162555 0.0111972 -0.126857 
-0.190857 0.0101032 -0.115194 -0.230892 0.00449917 -0.117456 -0.169269 0.00561253 -0.120516 
-0.144038 0.00257704 -0.125545 -0.132952 0.00478061 -0.117173 -0.244919 0.0079653 -0.120353 
-0.144297 0.010549 -0.0640479 -0.227842 0.00567935 -0.000632723 -0.159026 0.0119963 -0.115629 
-0.178377 0.0101259 -0.114251 -0.208464 0.0098871 -0.109527 -0.200652 0.012496 -0.116765 
-0.140295 0.0063367 -0.110323 -0.244995 0.00579134 -0.109718 -0.183249 0.0109782 -0.123047 
-0.130058 0.0122191 -0.0208149 -0.227475 0.000923094 -0.106106 -0.178948 0.0143352 -0.104287 
-0.169303 0.0118637 -0.11041 -0.237136 0.00715445 -0.103677 -0.154416 0.0125619 -0.244341 
-0.237297 0.0120364 -0.115228 -0.242951 0.00969626 -0.130073 -0.245009 0.00108953 -0.0985703 
-0.209973 0.0131314 -0.100027 -0.199175 0.00921227 -0.0995222 -0.189451 0.00941224 -0.102282 
-0.161677 0.00659416 -0.104841 -0.14377 0.0100239 -0.100587 -0.172652 0.00941148 -0.148339 
-0.208574 0.0108916 -0.0209461 -0.149651 0.0104279 -0.0811774 -0.218 0.0117138 -0.0922356 
-0.191211 0.0043818 -0.0900853 -0.183005 0.0125302 -0.09345 -0.172679 0.0112291 -0.0949859 
-0.14963 0.00907026 -0.0914931 -0.228856 0.00565419 -0.0975061 -0.228648 0.0104551 -0.108139 
-0.244905 0.0136732 -0.214113 -0.244667 0.00476192 -0.0891949 -0.201017 0.0148452 -0.0110892 
-0.159181 0.00991031 -0.0880924 -0.225535 0.0143382 -0.0850899 -0.214335 0.00737085 -0.145151 
-0.231289 0.00160096 -0.0852633 -0.168127 0.00226249 -0.0864505 -0.150644 0.00101415 -0.0845789 
-0.139391 0.0129833 -0.0809846 -0.139467 0.0115396 -0.202708 -0.185722 0.00108925 -0.0819408 
-0.239217 0.00569353 -0.0757714 -0.221367 0.010727 -0.0748111 -0.207896 0.00523261 -0.0776546 
-0.197771 0.00958367 -0.07389 -0.176234 0.00480822 -0.0794124 -0.161318 0.00383867 -0.0760202 
-0.179377 0.0130606 -0.0359596 -0.159186 0.0118946 -0.00660776 -0.187516 0.00959422 -0.0730122 
-0.150578 0.00430652 -0.0733476 -0.132466 0.0124238 -0.0735547 -0.229556 0.0075536 -0.0700338 
-0.141681 0.00107162 -0.0702628 -0.244731 0.00882279 -0.0674968 -0.212144 0.00259892 -0.0680113 
-0.183838 0.00864478 -0.23464 -0.173354 0.00105104 -0.0664506 -0.193615 0.00826055 -0.0646008 
-0.183314 0.00585875 -0.064638 -0.157473 0.00504676 -0.0661407 -0.138076 0.00321171 -0.0610437 
-0.233604 0.0125089 -0.062352 -0.224417 0.00837078 -0.0606156 -0.202878 0.00904015 -0.0547272 
-0.24499 0.00239719 -0.0593536 -0.233805 0.00479122 -0.055473 -0.211682 0.005127 -0.0574879 
-0.150909 0.00437935 -0.0585967 -0.148265 0.00906387 -0.195993 -0.175387 0.00326438 -0.0569615 
-0.161887 0.0104524 -0.0578608 -0.138796 0.0119853 -0.0550926 -0.187323 0.00644419 -0.0553762 
-0.244966 0.00216679 -0.0491258 -0.220369 0.00262047 -0.0531281 -0.166223 0.00549286 -0.0489911 
-0.146357 0.00962049 -0.0484104 -0.133215 0.00245322 -0.0507107 -0.225558 0.00512584 -0.0438228 
-0.213464 0.000984325 -0.0438653 -0.155571 0.00342507 -0.049267 -0.236268 0.00781065 -0.0456113 
-0.204663 0.00560347 -0.0429288 -0.19478 0.0080766 -0.0489199 -0.180707 0.00674544 -0.0470987 
-0.172507 0.0127925 -0.0437246 -0.229079 0.0140398 -0.0493528 -0.176496 0.00105238 -0.040101 
-0.165373 0.00226388 -0.0394862 -0.154982 0.00275856 -0.0373108 -0.138556 0.00985174 -0.0415868 
-0.244801 0.00209978 -0.037755 -0.187701 0.0071985 -0.0399337 -0.234375 0.00495519 -0.0357167 
-0.216882 0.00310248 -0.0322727 -0.182666 0.000958523 -0.0321848 -0.209696 0.00964307 -0.034871 
-0.199494 0.00586527 -0.0339578 -0.171825 0.00699225 -0.0334521 -0.148641 0.0111579 -0.0369177 
-0.172045 0.00108768 -0.0253949 -0.162601 0.00168451 -0.0286155 -0.147996 0.0106056 -0.0238835 
-0.137938 0.0118999 -0.0278871 -0.244887 0.00421117 -0.0242637 -0.237364 0.0143977 -0.0269178 
-0.22736 0.007702 -0.0263265 -0.207664 0.00108015 -0.0280995 -0.190273 0.0069756 -0.0302455 
-0.234971 0.00427445 -0.0204771 -0.225463 0.00432244 -0.0170612 -0.197219 0.00628199 -0.0230026 
-0.186088 0.0056007 -0.0203474 -0.216655 0.00518076 -0.0224674 -0.244648 0.00614249 -0.0129906 
-0.179294 0.0149906 -0.0234462 -0.218302 0.0141266 -0.138238 -0.202043 0.0115185 -0.128089 
-0.215787 0.00101879 -0.0130703 -0.205681 0.00218216 -0.0154556 -0.193612 0.00874492 -0.0139436 
-0.172293 0.00605402 -0.015722 -0.162732 0.00371643 -0.0127013 -0.152894 0.0117354 -0.0144744 
-0.140215 0.00736477 -0.0181068 -0.131431 0.00905366 -0.0104545 -0.184155 0.00933601 -0.0106262 
-0.152252 0.00529335 -0.0035679 -0.143179 0.00500023 -0.00797348 -0.228101 0.0112715 -0.0101472 
-0.210935 0.0097258 -0.0112429 -0.167071 0.0120647 -0.213915 -0.237523 0.00726867 -0.233768 
-0.235816 0.00548439 -0.00665976 -0.20798 0.00355691 -0.00358849 -0.196177 0.00697035 -0.00415967 
-0.165661 0.0118092 -0.0698206 -0.178724 0.00487174 -0.0028668 -0.244972 0.00138797 -0.00350683 
-0.217864 0.00510703 -0.00411726 -0.1639 0.00108141 -0.00313589 -0.134979 0.0070357 -0.0012503 
-0.181347 0.00108269 -0.244952 -0.145623 0.00745663 -0.210676 -0.160626 0.0108976 -0.0427075 
-0.221985 0.0127214 -0.1485 -0.241003 0.0124278 -0.0361521 -0.242739 0.0130376 -0.240716 
-0.163945 0.0122494 -0.230801 -0.180841 0.0135232 -0.218688 -0.228568 0.0140267 -0.0350093 
-0.220706 0.0138474 -0.165795 -0.208066 0.0129946 -0.139786 -0.155031 0.013146 -0.0722325 
-0.244981 0.0141147 -0.0452212 -0.201323 0.013868 -0.244973 -0.191022 0.0126544 -0.244811 
[...]
POINT_DATA 4276
FIELD FieldData 3
id 1 4276 int
3034 1786 2202 3891 870 917 2638 484 1026 
2178 1792 445 1777 2681 3063 2215 2209 3950 
149 3898 538 3024 3927 4004 3930 4033 487 
451 922 1337 13 2263 2182 3473 3460 7 
1354 3180 1477 911 3492 1757 3190 2627 2648 
2606 1420 3055 475 2216 1750 2200 2620 1353 
4001 3038 481 3988 3498 3074 454 1761 2195 
3053 3070 2176 477 608 897 1 12 1903 
471 2201 1312 2603 1752 2219 3077 1413 1483 
3035 2634 871 1406 486 3946 3061 1796 3511 
492 3624 1797 2214 3465 3461 1793 1778 1319 
2177 1338 2693 1363 531 3609 39 1345 2212 
15 1321 465 3926 5 1313 2222 4034 3982 
1801 1782 3059 2221 918 491 1915 450 1762 
3894 1467 96 904 1339 1837 181 3545 3049 
448 3189 576 46 910 906 899 3471 614 
546 877 1756 49 881 590 1349 3548 2644 
960 3542 2328 1411 1798 2629 2636 3469 591 
1356 3896 905 3196 3944 1921 898 2314 1355 
3893 1898 3482 3195 2746 2607 889 3607 3078 
913 2180 1844 3079 1759 2220 879 3 2181 
2732 3026 3931 872 1005 3985 1006 529 2699 
3943 2639 3071 2621 45 1852 2756 902 1849 
3608 3112 1352 1314 3463 900 3187 55 3992 
1924 52 2213 3485 2598 493 1357 2211 2599 
2196 2337 1784 3932 3186 2199 3060 3028 2326 
2647 3062 3904 11 510 479 961 3899 1019 
2183 3923 3935 44 3069 875 2698 485 473 
1360 22 3532 1838 176 1905 50 3892 3033 
4049 3929 2635 3050 490 1375 3928 3503 3054 
873 1311 874 3506 1310 925 3032 3951 2204 
3108 218 169 594 3493 3508 2659 2336 1351 
3903 901 2597 67 3940 516 868 2236 77 
3104 2630 1895 3489 1344 3939 59 41 1774 
482 469 1795 909 926 3544 1343 920 3483 
1346 35 3066 2600 3159 3551 1755 2736 3994 
1758 38 3467 3922 3509 3036 914 3464 2231 
1810 2205 3919 1371 1794 2 951 3470 3202 
2637 1443 1776 3958 30 89 1359 1396 885 
953 916 2650 1802 3086 1054 1374 2349 3213 
2652 2656 3229 4026 4082 637 2655 519 2617 
3520 4080 1330 92 498 81 3090 1069 933 
3963 2280 2633 3973 511 2667 512 3978 3031 
17 43 1376 4015 3968 88 4094 3917 3145 
4073 2225 70 1074 1397 3093 890 215 931 
33 1819 882 3975 3525 1394 3955 1820 1767 
499 3228 3480 3221 3099 3094 136 1826 892 
3517 3918 561 2653 2662 2661 1822 1862 896 
948 1827 2247 2670 888 1373 947 886 3570 
943 3571 1331 2233 3910 2615 4106 1424 86 
3522 503 1809 549 4024 28 625 496 2663 
2244 2242 2237 1833 3088 66 1389 1828 3924 
1076 3962 3479 3110 501 1934 2665 936 25 
84 1807 3657 628 3537 2227 1061 495 3529 
224 1384 2253 2679 981 509 3981 3474 1063 
944 2251 559 514 2254 2677 3039 217 3475 
2713 1335 3523 1385 3478 2783 1429 2186 2651 
3048 518 937 1808 1390 3098 2228 3539 2230 
1334 3912 2190 456 216 3960 954 3106 3526 
3083 3952 929 1830 1377 2612 1764 956 1959 
2248 449 567 1367 3103 4074 32 2234 949 
3082 3920 3109 500 895 3045 1768 1423 2193 
2674 1395 71 1817 2243 990 2666 3046 2769 
211 3967 458 1520 3533 3107 3521 1766 1326 
3911 2192 1773 1769 952 1770 2611 3081 1930 
1815 1816 1392 2675 95 2613 85 3961 2189 
193 460 94 3959 1391 4017 206 3528 3976 
3915 4012 3089 457 2671 4103 934 884 75 
3085 3906 3980 199 1516 945 2187 2232 1499 
90 1824 69 1963 1387 3091 497 68 942 
2383 2660 3953 2618 3092 2252 927 3531 3513 
21 938 2642 3147 3534 3971 2614 3970 1772 
634 1381 2250 548 91 3111 2191 1511 1812 
2238 508 3087 1500 3524 2609 535 3047 142 
3558 880 1393 483 3543 1324 1781 1341 3934 
1800 1323 3115 453 2185 8 3459 99 2271 
480 1366 3933 1783 3630 919 14 2640 2217 
1031 474 2210 3502 3025 1340 3466 2622 878 
464 2628 1401 1325 42 1347 3897 1348 1032 
54 3598 47 1836 3902 3051 3484 489 3029 
36 1350 907 3064 3486 606 2601 2325 3472 
1320 1309 462 29 444 3490 2625 3495 40 
1856 3491 970 876 466 2602 3905 597 3895 
2632 2641 3462 2208 2626 9 2223 3030 1445 
101 3938 2218 1358 2207 3027 1464 3504 869 
1775 3068 2198 1753 53 1322 2256 1317 2623 
1044 10 2631 3497 1749 3925 3057 2184 488 
2643 1408 1923 581 468 63 1834 602 3900 
3163 58 2752 915 2646 1900 921 599 1779 
966 1751 2755 2342 2197 3037 3947 3076 2694 
1315 1479 1361 3065 446 3116 1342 3945 1799 
1760 467 60 3510 3592 3120 1365 74 476 
37 2624 2645 1787 1884 452 3611 1362 1003 
3643 1904 3494 1316 1416 16 586 3487 62 
1765 2605 912 2649 3130 3941 3949 3144 3540 
3084 3095 2378 3541 34 2664 2604 1318 2179 
3052 2616 2203 3105 3044 1053 3236 3530 470 
887 1062 1785 1379 1937 3907 521 1333 891 
19 72 505 4076 2668 2723 2288 928 2658 
523 3141 3914 3936 1813 1501 1811 3965 2804 
1876 923 2669 2356 3041 1087 955 2249 883 
1060 1071 1823 2672 187 2791 507 64 4077 
941 23 992 3972 894 2363 24 4104 1329 
3101 2610 1388 1814 93 515 506 461 517 
2654 3527 3964 20 1370 1497 1336 463 1427 
2241 3535 2676 3043 459 79 3979 984 513 
4091 643 76 3921 18 2224 940 1383 3515 
3230 2673 494 3476 1328 2229 1771 126 1874 
1372 2678 930 3569 2768 1821 1378 932 3516 
2240 1327 1869 3097 939 3481 3538 3100 3080 
2239 3966 1369 2608 1051 3518 893 1871 2809 
3512 1386 950 128 2246 3916 3477 3957 4083 
27 2188 2374 3969 2690 1763 1332 520 1382 
1368 2657 225 935 51 3153 2379 2235 80 
48 3552 165 3599 589 158 1414 976 3688 
109 525 1455 3613 1521 1042 155 1922 978 
171 1854 112 3627 1841 3620 2324 1011 3631 
2023 1028 2726 3622 1040 1882 1447 3184 4064 
1886 967 2340 3056 3604 2329 1486 2339 2315 
2466 3626 2750 604 4005 3164 160 3721 1901 
574 1020 1474 447 3119 1402 613 3554 4058 
106 1103 145 3560 3075 1037 1480 1398 2700 
1430 2730 2333 2331 3686 3596 3556 3118 3983 
4066 3166 2697 4041 714 979 573 2758 2696 
245 3602 962 4036 4060 1412 3263 178 2327 
4002 1468 3761 1919 174 2822 1789 4065 2267 
1012 598 4050 2749 4030 1899 553 4047 177 
3129 107 1399 2803 1460 1579 111 3067 3623 
1890 583 731 1009 584 1846 973 959 156 
3728 1897 1918 2259 3174 3996 297 3113 1446 
4037 183 588 4067 4054 3127 2265 4061 2757 
612 4031 172 4194 2307 3197 957 2275 1754 
2367 2305 3997 4053 545 1595 1030 1536 1024 
3621 3134 3606 2040 1850 3131 3165 1902 1022 
116 1456 3121 2269 2320 600 154 2274 1858 
3591 2398 188 958 3124 2764 1452 539 1041 
1463 105 971 3629 1117 587 603 972 1034 
3201 1913 4048 544 1482 2262 1885 170 924 
3984 2277 903 3614 543 4172 1029 2685 1453 
3198 1883 4198 162 3692 1017 605 4045 2725 
308 2261 580 2407 3603 1988 3562 148 2701 
1906 1039 577 3209 1896 4 2748 2206 3990 
4062 2692 2741 1788 2922 3590 3170 533 114 
652 541 3594 2734 3307 4046 542 2728 2308 
1459 3168 1472 1840 3561 1637 3995 1417 4055 
2321 1454 2310 2889 3128 3193 3167 1004 2306 
1013 1867 504 3200 3595 3300 3549 472 2727 
3160 1419 745 4187 2268 3058 1444 3205 3565 
2344 3245 2742 2332 182 3191 3559 346 4007 
1100 2334 110 1495 102 2702 3172 2276 2682 
3709 1405 2396 3617 963 2731 1908 82 1400 
3188 1948 2316 3125 4171 166 526 3022 3177 
3468 1415 4069 274 3628 179 527 1532 1462 
2341 118 4035 1141 2369 615 1431 3215 2688 
146 1070 1440 1191 175 4108 2507 3519 1407 
975 122 1470 3665 1437 2319 151 1790 630 
2368 3908 1048 623 1457 3233 3654 3242 3154 
1865 618 220 3650 4009 3212 113 1179 4087 
195 4014 2786 4006 2780 3146 3194 3567 2798 
1991 648 189 4109 2706 1938 3639 1957 3791 
4079 653 1927 1947 965 3217 2194 1878 2292 
153 2373 185 620 191 3206 1131 983 641 
2286 1565 2294 1119 3574 3673 2376 2939 4013 
2489 130 228 1932 3222 2793 646 655 1504 
2770 642 2352 987 3148 997 3040 1084 3207 
1202 133 3208 3668 1926 3703 4020 1505 551 
1951 205 1881 1942 2380 3993 1831 2777 2806 
1488 221 2282 3646 1868 1943 2291 3203 552 
570 1426 3637 1990 1573 3585 2384 1081 1432 
4081 3223 2788 135 83 757 626 1123 1441 
1925 3641 640 140 1619 1873 2415 1059 3642 
229 2362 3653 4112 3140 4110 563 3234 2720 
210 3666 1966 651 1442 3220 3635 1064 2357 
1941 3240 2710 1523 2074 3579 3662 1085 1494 
1805 946 2297 3636 1439 1210 1492 2069 569 
1879 1046 568 2345 2284 2293 1489 2425 2716 
3135 564 3214 207 3660 4096 2364 1075 1436 
991 3581 4092 3583 2787 3656 1055 4085 3568 
214 1490 78 4025 2718 2807 1863 1498 2707 
1954 1946 2279 4011 1965 2359 2800 1079 1077 
4100 989 204 141 3142 2805 1527 1001 1065 
994 3576 985 3225 1002 2371 4093 1514 3149 
143 2372 1518 1508 3143 3586 3155 621 1997 
4097 1066 2386 3634 1880 3096 131 137 556 
227 2790 3648 2795 2365 1961 455 1877 2375 
998 2350 644 3667 1428 3632 2712 4027 2802 
3536 1832 2782 3670 2711 550 627 2808 560 
2501 554 138 197 2505 2714 1522 1956 3778 
3956 3909 1491 649 3651 1825 3647 3566 3152 
4022 3659 562 3577 4075 3575 1958 201 986 
2056 3578 2705 127 1509 212 1935 1872 4018 
134 3235 631 223 1864 3652 3633 3204 4008 
1526 4107 2358 1936 1422 194 3138 4023 4029 
3587 761 3280 3913 3238 3616 532 3600 2760 
3126 2317 1465 1409 1803 585 607 1035 1015 
1016 4000 3760 2323 1473 2709 3610 1078 601 
1023 2472 3547 3733 3175 1839 4039 2762 2302 
1410 3998 3942 1027 2042 2753 2257 3178 306 
547 1892 2301 2464 2270 2408 2687 1907 117 
2739 610 2258 295 2351 2738 1894 1014 4126 
4068 281 186 2311 3173 1909 144 4038 2272 
3729 3171 1038 2312 977 2462 168 974 3182 
1887 2743 596 2686 528 575 593 1888 3937 
1484 572 2733 1914 3987 3496 1891 4043 161 
3185 537 222 3298 530 3555 968 3169 2353 
524 1512 3122 4003 675 1403 3181 157 1791 
163 1418 2309 578 3690 4052 2322 609 2451 
1478 1912 3948 1920 2295 2695 2684 908 4119 
2264 595 4057 167 1461 184 996 2735 2744 
3605 1036 1010 1448 1510 3625 2009 2041 3612 
1845 969 6 98 103 2729 159 3618 4078 
4063 1843 1893 2680 2861 1851 654 1043 3553 
1857 1853 1950 592 180 2766 1911 4051 2759 
1450 2255 3615 1451 1466 2343 1917 4056 4042 
152 2683 4115 1842 3183 1971 3557 1476 150 
2691 108 1485 147 196 3619 579 1018 2260 
2387 1058 2761 4040 61 1866 2266 268 4111 
1916 982 198 2299 2278 120 1449 3716 209 
2354 139 1995 1889 3671 1517 192 3241 202 
2773 4212 3672 1475 2503 2771 1638 190 3216 
636 1528 2287 1861 219 132 980 3645 1471 
2785 1515 4136 125 3584 100 635 4071 3243 
4090 1944 129 3573 616 3649 695 1425 2290 
315 1080 2348 3663 4010 4150 123 2784 3954 
2067 2703 1659 2792 3137 3231 993 2779 124 
1558 3156 1502 558 1047 2300 3158 2298 632 
2366 3977 1493 1945 2355 4089 321 1804 565 
1438 2916 2719 3224 1955 2781 633 647 200 
3157 2724 208 3582 4098 774 1574 502 656 
2722 2281 2002 1933 1960 3784 1524 1513 619 
988 2296 213 2370 1000 1962 617 1928 3669 
1073 645 2799 3588 1953 2740 2245 2347 3102 
3661 2774 2772 1496 2801 3136 2778 1086 2226 
571 3139 4084 4215 1435 65 2385 1434 4088 
1211 4028 522 3644 2907 3658 622 638 1949 
566 203 1056 1870 2285 1875 1049 4102 1082 
1433 3227 3364 1057 57 2717 629 3211 3218 
2704 2910 2708 31 4072 1506 121 3589 1380 
244 3162 1552 4158 3316 3294 3292 1267 674 
2465 1586 2453 611 2751 280 1174 3564 310 
3372 3413 1855 2013 2884 2446 2990 2871 1571 
4196 233 2459 3301 285 2397 4164 3254 2810 
2814 97 705 247 3725 725 1021 1160 1599 
248 668 2335 3321 1581 282 4175 1404 2011 
2433 2019 2403 3261 1582 536 4032 2765 1093 
1166 4197 2037 709 4173 2313 283 1983 290 
2020 708 1099 3291 3251 298 659 1148 3260 
2745 2434 2862 2747 2441 730 3328 3262 1542 
2816 2026 2879 3677 119 3255 1548 4163 3176 
4166 711 2870 3322 1973 2448 3756 4120 4116 
1592 4190 2036 964 2014 232 2828 670 3687 
2034 2819 1604 665 4168 3679 3754 719 1688 
2754 249 2405 3726 4191 231 4117 1138 3749 
2468 3678 1578 1605 3727 1611 738 3313 4145 
3318 240 3304 3290 3247 1161 2432 4169 3330 
1155 1968 1982 4167 1593 2823 1158 3772 1598 
1094 2880 707 3730 3675 2878 734 2440 3695 
1149 2071 2457 3309 2830 408 3747 3745 305 
3249 1535 1146 2821 3751 1615 724 250 1689 
1596 3744 287 3681 666 1088 3738 273 1090 
115 2304 2028 3310 3743 1590 252 2435 1458 
3838 1108 661 2007 1538 3683 2445 3758 3593 
309 1970 3308 3317 3693 713 1583 2874 1976 
1107 277 3737 173 2402 2813 727 1529 2027 
2886 2010 239 3199 3295 1173 3674 716 3694 
4113 3311 1008 677 246 4185 1098 540 4183 
2447 2991 1096 821 279 1848 1097 2891 3722 
307 1984 726 2831 1617 2826 4189 3265 3723 
2436 3250 722 1607 337 2881 1157 4184 164 
243 2860 4296 1534 4287 3114 1135 3248 2467 
2883 2022 2763 3682 3117 251 3753 2437 1539 
1540 4141 3563 4129 2008 385 2046 1139 1547 
3759 3324 236 3680 1847 1142 294 2487 680 
715 3151 2039 3763 1576 3264 1654 3281 278 
2882 3256 2394 3757 2888 1835 367 2954 293 
4118 2444 3546 2827 1701 2868 3986 704 3132 
1537 1977 2012 2303 1133 3259 1609 2902 4105 
1102 2055 3345 2850 3192 3388 1999 2928 344 
2065 3273 999 2064 2854 267 1603 582 2043 
773 3410 789 764 2449 265 1555 712 3355 
3340 2079 255 1136 4132 2478 2463 1194 1126 
1208 1967 2510 2715 3999 1095 1159 3278 1113 
332 1052 4149 3794 2346 4152 3702 2479 2914 
742 319 3267 691 849 235 2382 1642 2164 
1033 2049 1045 778 1205 3795 3275 2903 2066 
2455 2154 2938 2852 2502 2900 4138 253 4234 
4230 325 2919 1992 1213 1646 2915 2508 4147 
3640 4155 3369 1859 743 684 1644 3768 2491 
3769 756 4225 2361 3878 4202 3331 1192 2474 
3341 1128 323 3332 327 4216 3353 3764 3572 
689 3354 2420 2901 2789 2480 4139 693 2923 
4237 1183 995 328 2775 2776 3352 2418 3271 
3792 2839 2068 1198 762 755 2856 2721 2006 
2833 1130 4156 335 3783 3150 226 1567 1124 
1525 2051 2414 4143 1188 2416 1651 2935 3712 
1195 2421 4200 2841 4153 2937 4233 2070 2498 
318 847 4227 1196 342 316 2913 4224 259 
3272 4016 331 4210 781 1120 1294 3366 4086 
3706 1289 3705 1723 2430 1649 270 692 3719 
1201 2509 4221 3361 682 4325 2086 3714 1656 
3823 3698 3239 3362 1620 1122 3803 1568 2083 
2904 690 320 3771 1238 3444 2429 2428 2506 
324 1645 329 3371 1648 679 2377 347 2494 
4318 4238 3358 2424 3879 1572 4151 1184 1177 
4236 1114 2926 2481 4207 758 3356 372 2512 
1562 3346 3786 1193 3819 1185 1940 699 1575 
1176 2912 3796 352 779 775 2843 1998 4144 
3701 2837 771 4095 2511 2410 322 2589 2796 
768 1860 763 2906 3785 1633 3765 2853 1570 
678 333 2492 698 1626 1564 258 4137 1121 
3801 3286 1200 1952 3359 3363 1996 1559 269 
2514 765 1630 1181 1050 1072 1635 683 1503 
2082 3288 1112 1682 4101 1300 3350 2908 2794 
650 557 747 1215 3781 1115 639 1641 4070 
3991 1481 2442 2824 3232 1986 1657 1110 2818 
735 814 3731 1147 2905 1588 1162 4188 1974 
1167 3161 2273 2564 2875 2080 286 1975 2872 
3323 3319 1169 2896 4165 4192 3327 703 1929 
3315 1981 3597 4134 3244 662 1469 660 2318 
1972 2473 1608 3689 1585 1531 663 2338 4121 
2894 4180 3314 4130 4284 740 3989 311 739 
3740 1546 2867 292 733 1533 1602 291 3732 
1589 238 1530 3133 3742 728 3762 3302 534 
2404 2460 3312 3293 4122 299 1150 720 4125 
2859 1163 4177 2015 2829 2895 706 2689 2454 
672 1134 1591 241 289 3306 1168 1979 2045 
2873 4176 4182 2390 4181 1197 2443 3684 1969 
1089 3821 2470 2812 4160 104 1104 3303 669 
3257 671 2817 314 2389 1109 2767 3697 3246 
2737 2811 300 2471 1170 2946 4159 732 301 
2388 729 1551 736 2877 1616 3325 4174 3755 
3846 1910 2820 1143 1718 3375 3368 1154 3774 
2018 2084 2892 2035 3676 3252 3296 2330 2452 
3750 4059 4127 2890 2876 3601 4162 555 296 
723 4218 710 1101 3423 3746 2044 1007 2887 
4205 2456 1600 1156 2005 1553 2360 770 777 
3720 1165 1067 3334 4131 3449 2024 3798 1129 
3828 2393 772 2925 4099 2061 1025 4161 3333 
257 2289 3707 1629 1632 1612 2934 2844 1631 
2054 2419 2087 2929 696 4146 303 338 2052 
4229 2003 2500 3775 688 1566 330 2050 4223 
336 2485 1563 3780 2845 1421 3219 3226 2842 
2488 2930 2001 2899 3343 272 2847 1994 3237 
1650 3788 2497 751 1206 256 2933 2797 2918 
1625 1132 1190 3655 1674 3365 2423 1297 340 
1655 3711 2109 681 4213 2932 1212 2283 776 
4021 3799 3773 3710 4206 3360 2482 3804 2062 
3338 3279 1203 1639 1083 4154 2846 3708 1621 
4019 3871 2431 766 317 355 4199 326 334 
1628 3284 3283 1623 3664 1560 3447 382 2513 
3713 3580 1640 4157 1556 2927 1199 1939 4142 
3700 263 2411 2085 759 264 348 242 694 
3638 3336 1507 3337 4235 2381 753 3704 624 
2427 3276 4211 3342 2078 1214 254 4217 744 
3287 686 3715 2484 3824 3270 3351 2089 4203 
4148 1931 1487 3277 343 1068 3349 767 1731 
3691 2504 1647 697 2053 2060 3258 2496 760 
3379 752 1653 1092 3685 4226 2076 2059 4231 
1643 271 2917 350 1627 3282 266 4044 4170 
4222 2000 443 3274 748 2088 345 1636 1584 
2048 1989 1597 401 3839 2144 1690 1667 2970 
4253 3739 1717 791 1283 3420 2522 410 2117 
4178 3424 1255 2825 3383 3809 834 2948 4279 
3842 718 2406 4133 2898 4300 700 4282 2945 
2947 3832 395 4135 1543 2539 1610 3735 4274 
1265 2543 3829 2031 2391 2047 3850 2126 4281 
3811 1696 2950 1577 721 2033 831 2523 4276 
1219 1268 4254 359 3843 1140 2099 357 3402 
2965 2565 2400 1218 1271 2542 2979 823 702 
1220 1172 2988 4245 237 3380 826 1978 2145 
3378 1694 1153 1106 813 302 2531 807 2553 
3748 811 3841 2864 3403 4273 1671 1712 2132 
1137 3266 2521 2469 1224 2983 3253 2561 2093 
2438 3834 1226 2545 3852 4246 2971 2032 2547 
392 812 2974 2942 389 2966 2392 2524 3844 
2546 2969 1253 3384 3399 363 2133 838 406 
1715 3837 4240 3381 4275 4293 1707 1258 1693 
2121 2439 2091 3860 1668 1278 234 1716 3807 
2975 1225 1662 825 2520 4244 4255 829 4241 
2136 4302 2976 2137 2951 4297 787 3400 2832 
3736 1669 2537 2987 1272 1275 3416 3847 2131 
1714 2518 2030 3405 1270 2140 3853 1601 2461 
3812 3018 782 398 1248 3329 2138 1708 1262 
1227 4301 806 2558 664 2134 3865 288 2893 
790 2092 2941 3831 3417 4289 3858 1702 809 
2943 1260 1105 2526 2557 1699 360 2978 393 
4294 828 1698 356 2021 4291 4278 412 403 
2120 783 2940 1666 1549 1663 1692 1264 2986 
4242 404 673 1249 4298 835 1228 2869 3347 
402 832 1091 3808 1670 4280 3425 2515 2450 
1229 2399 2885 4290 1151 2967 4261 4272 2981 
1713 2989 2985 4288 2980 3421 1987 2863 3003 
3418 1263 2119 3881 1254 2956 1243 854 3875 
362 1250 3414 397 1739 4269 808 795 2866 
3406 411 1257 2551 2097 2968 1277 1545 2897 
390 1266 2963 1705 4250 3305 3857 3873 816 
2525 2114 3412 3374 2550 1252 3851 2984 3002 
2949 3440 3443 817 3008 383 1221 2573 3010 
840 2958 4114 864 3395 4286 792 1722 2587 
2549 2458 3426 3268 819 3445 3441 1230 4308 
2855 1685 3385 1720 4309 4263 3815 3789 676 
1678 2166 2836 1259 2098 4228 349 1303 3766 
2165 3429 2964 3458 1743 1681 2104 2992 4331 
848 866 855 3890 1204 859 3874 687 3836 
2994 1240 2865 4326 4320 1305 804 837 2538 
4317 1561 2106 3370 4219 3021 3699 2570 3455 
1741 2169 2426 1288 2572 1557 3014 850 2530 
3432 2532 3885 370 427 3797 3454 2554 354 
1234 3820 794 2160 2588 3866 3867 380 865 
2101 802 2579 1732 851 2998 1242 2840 2582 
422 4327 3446 860 3770 4304 374 2534 3822 
861 3009 1679 1187 262 2108 3787 1304 1738 
4332 2105 3777 416 1207 3357 1125 1241 4306 
4266 2113 3433 857 2490 799 396 4201 3020 
3396 2156 379 2063 1291 2162 2920 3438 3015 
3782 435 1686 1719 801 430 3887 415 1296 
2148 1180 1745 769 2172 863 2580 436 1292 
2590 1676 2924 1747 3017 4220 685 2961 3818 
4313 845 3776 1733 2111 260 414 1624 2486 
2592 1182 1721 433 4262 1744 3006 4232 2155 
2576 2959 1652 3816 2072 852 841 4323 3888 
2575 2848 3876 1302 3451 4322 2163 856 3779 
3436 3452 371 1729 2571 2585 3790 2159 2475 
3387 1111 1727 1244 4314 2174 2567 746 2955 
2936 1284 1687 3019 2103 4209 1730 2581 2594 
2586 2574 3880 3434 2057 4330 1735 3011 3001 
1658 1235 417 2591 1728 1634 3269 1281 3453 
3398 2997 2583 3817 2595 858 3390 1684 1734 
803 3872 2081 3004 3392 3861 424 1232 3886 
867 3013 2171 1726 798 1280 1236 3882 1306 
839 2476 4260 4267 3348 428 1748 2110 4257 
2995 2566 429 1116 1298 376 3435 3456 2851 
3397 4243 275 368 2857 386 815 836 4283 
3409 2139 1276 384 2135 1985 2562 276 4247 
4179 3289 2409 1706 810 2143 1673 1269 2115 
2544 3415 2548 1222 1660 4277 2123 365 2128 
1544 2141 3854 4186 667 1550 2122 3855 3404 
394 786 1541 4249 3377 1980 3422 3320 2025 
2094 2541 737 1152 407 358 4292 788 1245 
3752 2100 4251 3859 2401 230 2517 2090 3845 
3382 400 3848 2095 2556 3724 2540 1606 2559 
2996 4299 3856 3810 3373 842 2125 830 4193 
3833 2127 1171 1697 313 1256 1703 388 822 
2944 1217 4128 2029 1710 2858 3326 2972 1251 
3408 2536 1175 2952 2118 3734 657 1695 2563 
1594 3835 1145 1672 824 833 2973 387 304 
1261 3297 2130 284 3376 2982 1691 827 2016 
1613 4328 3840 3428 361 717 399 820 1144 
1664 1665 3741 2096 1164 2815 785 391 2412 
369 438 2017 3849 405 1711 1246 381 1704 
2560 4252 1223 409 4295 2519 4285 4195 3427 
3299 1580 4124 784 3813 2038 1661 2142 1700 
2116 364 2552 2977 2527 2129 701 375 1622 
658 2395 1709 796 2124 2849 2107 2953 2167 
431 2577 4268 2152 4324 797 3407 3868 2993 
3805 4319 4312 4123 1295 3419 2528 3389 1587 