# vtk DataFile Version 4.0
Generated by LIGGGHTS
ASCII
DATASET POLYDATA
POINTS 207 float
-0.24345 0.00375347 -0.244921 -0.220183 0.00373667 -0.244974 -0.210608 0.00380738 -0.241971 
-0.201019 0.00405715 -0.244997 -0.181498 0.00371862 -0.241979 -0.168719 0.00380807 -0.242094 
-0.231964 0.0037586 -0.239221 -0.191837 0.00409058 -0.240709 -0.243828 0.00373414 -0.231959 
-0.233075 0.0038319 -0.228687 -0.166496 0.00371826 -0.229135 -0.24472 0.00382812 -0.221971 
-0.178917 0.00410448 -0.218107 -0.234743 0.0041761 -0.213833 -0.223687 0.00409347 -0.216726 
-0.197338 0.00405521 -0.21543 -0.227305 0.00384722 -0.206902 -0.217299 0.00413354 -0.207078 
-0.172927 0.00403739 -0.200898 -0.245 0.0038555 -0.193634 -0.229744 0.00373742 -0.196665 
-0.218126 0.00408688 -0.197073 -0.206439 0.00404354 -0.189353 -0.192578 0.00375139 -0.191826 
-0.181633 0.00370414 -0.189392 -0.169232 0.00417143 -0.191188 -0.230991 0.00406325 -0.186721 
-0.244601 0.00410105 -0.180649 -0.223708 0.00380421 -0.179805 -0.204101 0.00371823 -0.178942 
-0.191857 0.00414674 -0.178077 -0.214366 0.00377973 -0.173623 -0.169056 0.0037581 -0.172177 
-0.162465 0.00373945 -0.164278 -0.243965 0.00407993 -0.157704 -0.182225 0.0037205 -0.15796 
-0.217228 0.00408629 -0.154273 -0.166771 0.00372513 -0.154865 -0.244374 0.00396389 -0.147162 
-0.224884 0.00387465 -0.147749 -0.234421 0.00375213 -0.14456 -0.211236 0.00382399 -0.14084 
-0.163229 0.0040382 -0.143185 -0.243527 0.00373074 -0.137043 -0.227055 0.00377839 -0.137765 
-0.187523 0.00408894 -0.134343 -0.234952 0.0037685 -0.128649 -0.222345 0.00372437 -0.128723 
-0.212134 0.00409074 -0.130814 -0.178161 0.00370918 -0.130661 -0.158703 0.00405626 -0.129963 
-0.245 0.00378475 -0.126733 -0.195757 0.00390936 -0.126421 -0.186543 0.00409185 -0.122535 
-0.238116 0.00409286 -0.118448 -0.228327 0.00380379 -0.120658 -0.219084 0.00373317 -0.115719 
-0.208209 0.00409007 -0.118945 -0.173464 0.00403829 -0.120008 -0.163527 0.00373212 -0.118348 
-0.244965 0.00408553 -0.111161 -0.210739 0.00416447 -0.109234 -0.233464 0.00389956 -0.10661 
-0.181887 0.00372156 -0.107121 -0.166281 0.00412452 -0.108689 -0.156081 0.00380828 -0.107335 
-0.242656 0.00416422 -0.101431 -0.200537 0.00408725 -0.101598 -0.19027 0.00374709 -0.101629 
-0.1736 0.00372011 -0.101313 -0.201511 0.00416872 -0.0873602 -0.160091 0.00380926 -0.087191 
-0.160051 0.00418803 -0.0674737 -0.176835 0.00371834 -0.0568203 -0.244927 0.00411672 -0.05478 
-0.185421 0.00376609 -0.0515272 -0.180962 0.00379202 -0.0425343 -0.186596 0.00406154 -0.022604 
-0.16879 0.00371932 0.00290581 -0.245 0.00416742 0.0119166 -0.207192 0.00417175 0.105802 
-0.233585 0.00408737 0.132351 -0.231352 0.00405396 0.217395 -0.213065 0.00419269 0.213838 
-0.224209 0.00369199 0.22921 -0.243741 0.00370957 0.234923 -0.24375 0.00378596 0.244998 
-0.231598 0.00411776 0.242212 -0.188047 0.0037644 0.243442 -0.143649 0.00374719 -0.244805 
-0.133483 0.00406004 -0.245 -0.122696 0.00374409 -0.244813 -0.0537637 0.00372129 -0.245 
-0.129707 0.00381125 -0.232748 -0.0569248 0.00407606 -0.233064 -0.137525 0.00372621 -0.226333 
-0.096469 0.00408042 -0.220934 -0.15068 0.00408823 -0.212974 -0.138411 0.00377383 -0.215999 
-0.0836447 0.00408523 -0.211155 -0.109229 0.00376802 -0.189622 -0.0986739 0.00408602 -0.19183 
-0.0816488 0.00374627 -0.192988 -0.154522 0.00388415 -0.18308 -0.117435 0.00415269 -0.173305 
-0.152613 0.00372847 -0.166043 -0.112557 0.00407075 -0.164573 -0.0960593 0.00375847 -0.167442 
-0.06702 0.00367984 -0.165143 -0.100989 0.00410125 -0.158415 -0.117928 0.00372416 -0.155884 
-0.148992 0.00408813 -0.145521 -0.115144 0.00370507 -0.14606 -0.0573299 0.00375939 -0.148459 
-0.112902 0.00372032 -0.134898 -0.139812 0.00380033 -0.128372 -0.15068 0.00378831 -0.123947 
-0.108237 0.00374605 -0.125683 -0.0963792 0.00412476 -0.118031 -0.14839 0.00373063 -0.114029 
-0.123466 0.0037257 -0.112887 -0.107639 0.00409258 -0.111856 -0.054547 0.00376159 -0.111101 
-0.127364 0.00379268 -0.0979478 -0.15477 0.00404488 -0.0961343 -0.0707691 0.00371914 -0.0623827 
-0.137071 0.00369136 -0.0284037 -0.0650458 0.00408721 0.0334239 -0.0614075 0.00409337 0.0891873 
-0.0637204 0.00372241 0.173065 -0.0521983 0.00408726 0.177216 -0.15239 0.00377396 0.20027 
-0.0534194 0.00378693 0.206976 -0.0189851 0.00406875 -0.239495 -0.000235179 0.00415844 -0.219327 
0.0492374 0.00408955 -0.175598 -0.02853 0.00411316 -0.164591 -0.00216664 0.00385982 -0.162786 
0.00275649 0.00372032 -0.144812 -0.0340066 0.00370494 -0.0978571 -0.033822 0.00387204 -0.0745365 
-0.00787929 0.00409868 -0.0599104 0.0391423 0.00415411 -0.0174031 0.00648052 0.0037661 0.00982765 
-0.00361306 0.00416561 0.0140061 0.020399 0.0041695 0.0134755 -0.0245716 0.00372952 0.0650887 
-0.00240689 0.00405212 0.214137 -0.0334584 0.00376007 0.232861 -0.0479473 0.00405141 0.245 
-0.0264022 0.00371557 0.244988 -0.0154973 0.00377268 0.245 0.0429347 0.00371864 0.244996 
0.100202 0.0037365 -0.156804 0.128832 0.00392132 -0.135229 0.0601485 0.00417464 -0.0789408 
0.117018 0.00372211 -0.0761527 0.0840534 0.00391924 0.0156539 0.105584 0.00405684 0.0150273 
0.110184 0.00373141 0.0359791 0.0530845 0.00374402 0.113031 0.149402 0.00415652 0.157846 
0.0848882 0.00380497 0.199613 0.225698 0.0036978 -0.244999 0.238701 0.00407912 -0.242305 
0.220997 0.00409079 -0.227571 0.231558 0.00373234 -0.228088 0.245 0.00411525 -0.229717 
0.228199 0.00408511 -0.218121 0.239902 0.00371624 -0.220448 0.209066 0.00383217 -0.213604 
0.220008 0.00419798 -0.207187 0.211303 0.00402615 -0.200918 0.17954 0.00408584 -0.195077 
0.201416 0.00376405 -0.192928 0.245 0.00404625 -0.174617 0.203917 0.00386509 -0.16821 
0.245 0.00405843 -0.158894 0.169306 0.00371021 -0.126657 0.245 0.00371853 -0.118304 
0.2093 0.00385475 -0.0992755 0.220674 0.00377607 -0.0917032 0.24054 0.00378817 -0.0821731 
0.214023 0.00410815 -0.0602121 0.160483 0.00409156 -0.0532149 0.21991 0.00405512 -0.0436943 
0.244991 0.00425969 -0.0456097 0.229484 0.00384163 -0.0371797 0.240476 0.00372839 -0.0366833 
0.220658 0.00418979 -0.0322163 0.231656 0.00393057 -0.0252621 0.241543 0.00362306 -0.0267397 
0.224065 0.0041761 -0.0187453 0.241542 0.00410019 0.0304302 0.23373 0.00371811 0.0377561 
0.169196 0.00386933 0.0577098 0.20204 0.00388727 0.0684846 0.221585 0.00400646 0.0723241 
0.239616 0.00371885 0.0853521 0.179198 0.0041569 0.121048 0.244544 0.00368216 0.140561 
0.171316 0.00403906 0.186351 0.156634 0.00372073 0.203753 0.2328 0.0037479 0.234168 
0.245 0.0040597 0.240627 0.160249 0.00369358 0.244997 0.169961 0.00407556 0.242507 

VERTICES 207 414
1 0 
1 1 
1 2 
1 3 
1 4 
1 5 
1 6 
1 7 
1 8 
1 9 
1 10 
1 11 
1 12 
1 13 
1 14 
1 15 
1 16 
1 17 
1 18 
1 19 
1 20 
1 21 
1 22 
1 23 
1 24 
1 25 
1 26 
1 27 
1 28 
1 29 
1 30 
1 31 
1 32 
1 33 
1 34 
1 35 
1 36 
1 37 
1 38 
1 39 
1 40 
1 41 
1 42 
1 43 
1 44 
1 45 
1 46 
1 47 
1 48 
1 49 
1 50 
1 51 
1 52 
1 53 
1 54 
1 55 
1 56 
1 57 
1 58 
1 59 
1 60 
1 61 
1 62 
1 63 
1 64 
1 65 
1 66 
1 67 
1 68 
1 69 
1 70 
1 71 
1 72 
1 73 
1 74 
1 75 
1 76 
1 77 
1 78 
1 79 
1 80 
1 81 
1 82 
1 83 
1 84 
1 85 
1 86 
1 87 
1 88 
1 89 
1 90 
1 91 
1 92 
1 93 
1 94 
1 95 
1 96 
1 97 
1 98 
1 99 
1 100 
1 101 
1 102 
1 103 
1 104 
1 105 
1 106 
1 107 
1 108 
1 109 
1 110 
1 111 
1 112 
1 113 
1 114 
1 115 
1 116 
1 117 
1 118 
1 119 
1 120 
1 121 
1 122 
1 123 
1 124 
1 125 
1 126 
1 127 
1 128 
1 129 
1 130 
1 131 
1 132 
1 133 
1 134 
1 135 
1 136 
1 137 
1 138 
1 139 
1 140 
1 141 
1 142 
1 143 
1 144 
1 145 
1 146 
1 147 
1 148 
1 149 
1 150 
1 151 
1 152 
1 153 
1 154 
1 155 
1 156 
1 157 
1 158 
1 159 
1 160 
1 161 
1 162 
1 163 
1 164 
1 165 
1 166 
1 167 
1 168 
1 169 
1 170 
1 171 
1 172 
1 173 
1 174 
1 175 
1 176 
1 177 
1 178 
1 179 
1 180 
1 181 
1 182 
1 183 
1 184 
1 185 
1 186 
1 187 
1 188 
1 189 
1 190 
1 191 
1 192 
1 193 
1 194 
1 195 
1 196 
1 197 
1 198 
1 199 
1 200 
1 201 
1 202 
1 203 
1 204 
1 205 
1 206 

POINT_DATA 207
FIELD FieldData 3
id 1 207 int
131 2346 5794 1013 1957 5883 7911 6741 2186 
1984 6357 3538 3028 1269 1458 488 371 17 
3392 1027 603 208 1247 563 1304 1011 4783 
1048 1064 95 5831 3003 1949 47 2804 4135 
2338 3760 3738 921 7074 4561 889 6484 3566 
3629 1118 2507 6159 2301 3365 618 1820 1869 
8326 2428 2361 5380 3374 2100 3282 92 3192 
4830 6454 97 1836 2371 2533 2171 1154 755 
2053 3628 6133 7017 4486 1180 8696 986 258 
1047 1834 6251 4502 2078 4648 553 3327 6347 
8119 575 180 1478 1621 3341 1172 4546 2373 
1214 8483 1368 5001 187 2869 3674 1383 4136 
2221 1439 8287 1555 288 3043 4951 1217 396 
378 262 2494 1930 2623 1248 4362 1496 4504 
7899 4268 1356 5126 787 2559 809 5244 2449 
662 2118 3021 1503 498 3400 7100 930 6239 
2748 4273 2195 7815 7842 1444 249 1545 5088 
1785 3270 3539 56 1124 1833 945 1874 1838 
764 5920 4496 4318 5071 1686 1625 2230 239 
456 2606 4482 515 8673 1859 1585 264 7818 
2151 1483 386 4317 791 1577 1793 88 3147 
305 2063 1146 1817 2152 4478 7117 2319 4661 
2917 1379 113 3472 692 1142 814 1320 4356 

type 1 207 int
1 1 1 1 1 1 1 1 1 
1 1 1 1 1 1 1 1 1 
1 1 1 1 1 1 1 1 1 
1 1 1 1 1 1 1 1 1 
1 1 1 1 1 1 1 1 1 
1 1 1 1 1 1 1 1 1 
1 1 1 1 1 1 1 1 1 
1 1 1 1 1 1 1 1 1 
1 1 1 1 1 1 1 1 1 
1 1 1 1 1 1 1 1 1 
1 1 1 1 1 1 1 1 1 
1 1 1 1 1 1 1 1 1 
1 1 1 1 1 1 1 1 1 
1 1 1 1 1 1 1 1 1 
1 1 1 1 1 1 1 1 1 
1 1 1 1 1 1 1 1 1 
1 1 1 1 1 1 1 1 1 
1 1 1 1 1 1 1 1 1 
1 1 1 1 1 1 1 1 1 
1 1 1 1 1 1 1 1 1 
1 1 1 1 1 1 1 1 1 
1 1 1 1 1 1 1 1 1 
1 1 1 1 1 1 1 1 1 

radius 1 207 double
0.005 0.005 0.005 0.005 0.005 0.005 0.005 0.005 0.005 
0.005 0.005 0.005 0.005 0.005 0.005 0.005 0.005 0.005 
0.005 0.005 0.005 0.005 0.005 0.005 0.005 0.005 0.005 
0.005 0.005 0.005 0.005 0.005 0.005 0.005 0.005 0.005 
0.005 0.005 0.005 0.005 0.005 0.005 0.005 0.005 0.005 
0.005 0.005 0.005 0.005 0.005 0.005 0.005 0.005 0.005 
0.005 0.005 0.005 0.005 0.005 0.005 0.005 0.005 0.005 
0.005 0.005 0.005 0.005 0.005 0.005 0.005 0.005 0.005 
0.005 0.005 0.005 0.005 0.005 0.005 0.005 0.005 0.005 
0.005 0.005 0.005 0.005 0.005 0.005 0.005 0.005 0.005 
0.005 0.005 0.005 0.005 0.005 0.005 0.005 0.005 0.005 
0.005 0.005 0.005 0.005 0.005 0.005 0.005 0.005 0.005 
0.005 0.005 0.005 0.005 0.005 0.005 0.005 0.005 0.005 
0.005 0.005 0.005 0.005 0.005 0.005 0.005 0.005 0.005 
0.005 0.005 0.005 0.005 0.005 0.005 0.005 0.005 0.005 
0.005 0.005 0.005 0.005 0.005 0.005 0.005 0.005 0.005 
0.005 0.005 0.005 0.005 0.005 0.005 0.005 0.005 0.005 
0.005 0.005 0.005 0.005 0.005 0.005 0.005 0.005 0.005 
0.005 0.005 0.005 0.005 0.005 0.005 0.005 0.005 0.005 
0.005 0.005 0.005 0.005 0.005 0.005 0.005 0.005 0.005 
0.005 0.005 0.005 0.005 0.005 0.005 0.005 0.005 0.005 
0.005 0.005 0.005 0.005 0.005 0.005 0.005 0.005 0.005 
0.005 0.005 0.005 0.005 0.005 0.005 0.005 0.005 0.005 

