# vtk DataFile Version 4.0
Generated by LIGGGHTS
ASCII
DATASET POLYDATA
POINTS 207 float
-0.243446 0.00769842 -0.244921 -0.220173 0.00773547 -0.244975 -0.210607 0.00773699 -0.241951 
-0.201024 0.00768475 -0.244994 -0.181516 0.00771473 -0.241995 -0.168713 0.00787519 -0.24206 
-0.231891 0.0077448 -0.239128 -0.191849 0.00770634 -0.240713 -0.243723 0.00789271 -0.232044 
-0.233075 0.00769632 -0.228687 -0.166675 0.00771147 -0.229228 -0.244749 0.00768711 -0.222097 
-0.179405 0.00772833 -0.219797 -0.234696 0.00787704 -0.213831 -0.223679 0.00772499 -0.216775 
-0.19734 0.00770358 -0.215432 -0.227305 0.00783657 -0.206902 -0.217299 0.00784943 -0.207078 
-0.174237 0.00770779 -0.200864 -0.245 0.007845 -0.194606 -0.230323 0.00786248 -0.19679 
-0.218126 0.0076895 -0.197073 -0.206439 0.00773376 -0.189353 -0.19258 0.00788512 -0.191828 
-0.181677 0.00788179 -0.189492 -0.16949 0.00787952 -0.191732 -0.231142 0.00768936 -0.186823 
-0.2446 0.00788186 -0.180738 -0.223843 0.00783851 -0.179985 -0.204101 0.00771201 -0.178942 
-0.192505 0.00769946 -0.179221 -0.214428 0.0079136 -0.174196 -0.169448 0.00769728 -0.172445 
-0.16294 0.00769714 -0.164849 -0.244725 0.00769611 -0.157921 -0.182225 0.00788094 -0.15796 
-0.217396 0.00769237 -0.154504 -0.166895 0.00766947 -0.155652 -0.243961 0.00785111 -0.147071 
-0.224671 0.00770201 -0.14747 -0.234243 0.00769775 -0.144568 -0.2126 0.00784734 -0.141453 
-0.164737 0.00788142 -0.144123 -0.243805 0.00767924 -0.137067 -0.226941 0.00770525 -0.137689 
-0.191148 0.00768028 -0.137824 -0.181106 0.00785461 -0.135549 -0.244757 0.00769594 -0.127107 
-0.234832 0.00769802 -0.128492 -0.224676 0.00788257 -0.127929 -0.212298 0.00785602 -0.131196 
-0.199339 0.00768441 -0.130677 -0.159611 0.00768111 -0.130839 -0.189743 0.00788035 -0.124759 
-0.239233 0.00774783 -0.11826 -0.229239 0.00790986 -0.118607 -0.219553 0.00787868 -0.116115 
-0.209674 0.00789443 -0.119107 -0.17394 0.00769656 -0.120027 -0.163748 0.0076832 -0.117978 
-0.244 0.0076725 -0.109469 -0.183795 0.00778246 -0.113224 -0.168935 0.0077174 -0.109429 
-0.234109 0.00769032 -0.107935 -0.211775 0.00792014 -0.104712 -0.191245 0.00767605 -0.105684 
-0.176692 0.00787883 -0.103114 -0.201195 0.00768578 -0.101555 -0.159378 0.0077471 -0.0981051 
-0.233624 0.00787994 -0.0962678 -0.168493 0.00789 -0.09399 -0.241872 0.00792971 -0.0894302 
-0.210532 0.00769688 -0.0887669 -0.203185 0.00781808 -0.0698761 -0.19224 0.00767948 -0.067527 
-0.193562 0.00771317 -0.0569603 -0.165117 0.00769823 -0.0553292 -0.202726 0.00770346 -0.0516677 
-0.244962 0.00787963 -0.0135611 -0.245 0.0077559 0.0452738 -0.222636 0.00788685 0.179269 
-0.213068 0.00769764 0.213851 -0.181598 0.00774985 0.221882 -0.243772 0.00770913 0.226666 
-0.231797 0.00776187 0.223508 -0.239918 0.00773204 0.236277 -0.230078 0.0078012 0.234435 
-0.244945 0.00785755 0.244928 -0.219395 0.00768729 0.24468 -0.143578 0.00768483 -0.244827 
-0.133501 0.00774651 -0.245 -0.122753 0.00787924 -0.24481 -0.0809137 0.00785019 -0.245 
-0.0621517 0.00787664 -0.245 -0.129707 0.00770782 -0.23275 -0.137483 0.00778012 -0.226379 
-0.105242 0.00789074 -0.225191 -0.150735 0.00792347 -0.212998 -0.139367 0.00771395 -0.216395 
-0.083646 0.00794155 -0.211155 -0.083252 0.00772308 -0.193492 -0.124225 0.00770995 -0.19242 
-0.101292 0.00788184 -0.192276 -0.154593 0.00788347 -0.183224 -0.135389 0.0078848 -0.184892 
-0.0624322 0.00791868 -0.181138 -0.152891 0.00769482 -0.165967 -0.117809 0.00790328 -0.167409 
-0.0779899 0.00774423 -0.167392 -0.119695 0.00769687 -0.157567 -0.0961712 0.00770248 -0.162373 
-0.0993198 0.00786424 -0.152855 -0.0728119 0.00774466 -0.156062 -0.153278 0.00786578 -0.147826 
-0.114337 0.00768701 -0.145142 -0.0946504 0.007913 -0.143901 -0.143185 0.00767078 -0.130041 
-0.15205 0.00769559 -0.124209 -0.120428 0.00770181 -0.125084 -0.113605 0.00775143 -0.115516 
-0.0718584 0.00773874 -0.116183 -0.148849 0.00787708 -0.11473 -0.127716 0.00786137 -0.11079 
-0.155906 0.00772147 -0.107636 -0.130614 0.00789365 -0.0979798 -0.115995 0.00787771 -0.092598 
-0.0564915 0.00770877 -0.0940037 -0.0824112 0.00771845 -0.0667665 -0.139982 0.00771478 -0.050107 
-0.137505 0.00771353 0.0800017 -0.0707924 0.00788557 0.0802379 -0.0606357 0.00755525 0.0808482 
-0.0745835 0.00769003 0.204001 -0.0836445 0.00787957 0.226656 -0.100915 0.00769837 0.23174 
-0.128543 0.00785867 0.244997 -0.0917039 0.00772033 0.243239 -0.0561546 0.00789157 0.175131 
-0.02119 0.00771921 -0.239712 -0.039255 0.00784809 -0.217077 -0.0124602 0.00768726 -0.222578 
0.0167239 0.00773771 -0.183047 -0.0382777 0.00769976 -0.173086 -0.0397345 0.00789288 -0.161268 
0.0389082 0.00787878 -0.103967 -0.00492383 0.00769244 -0.0934897 -0.0163878 0.00788787 5.40852e-06 
-0.0393543 0.00788052 -0.0792051 0.0511301 0.00772267 -0.0479747 -0.0404942 0.00784716 -0.046167 
0.0121706 0.00768693 -0.0195243 0.0241065 0.00785867 0.244997 -0.0409494 0.00787907 0.0389244 
0.0411201 0.00773756 0.10955 -0.00524424 0.00770091 0.122077 -0.0170497 0.00767364 0.136615 
-0.0191898 0.00768976 0.162053 -5.80752e-05 0.00787815 0.243321 -0.013182 0.00787815 0.225576 
0.0243508 0.00788196 0.231295 0.0554413 0.00768463 -0.000562808 0.121814 0.00792264 -0.237964 
0.0577838 0.00769946 -0.207417 0.100605 0.00768925 -0.12667 0.0886369 0.0077222 -0.118933 
0.0979297 0.00791764 -0.112843 0.15054 0.00776239 -0.0978904 0.151065 0.00788083 -0.0346941 
0.146585 0.00792237 -0.0092222 0.0530228 0.00769707 -0.0901421 0.129807 0.00788654 0.0142262 
0.0547297 0.0078915 0.220282 0.0560666 0.00786382 0.0145193 0.213941 0.00788118 -0.244356 
0.245 0.00767543 -0.245 0.244967 0.00706605 -0.234532 0.236327 0.0077222 -0.22448 
0.22509 0.0078835 -0.218612 0.211009 0.0079013 -0.215186 0.215753 0.00787484 -0.206133 
0.244983 0.00770737 -0.20462 0.206098 0.00756528 -0.181169 0.234111 0.00775574 -0.184557 
0.244979 0.00693604 -0.184353 0.227848 0.00786835 -0.174729 0.200582 0.00782523 -0.172707 
0.238589 0.00788196 -0.174275 0.159821 0.00768585 -0.0696715 0.23186 0.0078893 -0.0731245 
0.240885 0.00769754 -0.0631913 0.224175 0.00768409 -0.0549326 0.235382 0.0078862 -0.0530694 
0.224352 0.00788166 -0.0393002 0.237182 0.00775595 -0.0393894 0.157513 0.00787791 -0.24378 
0.19123 0.00772499 0.0189128 0.205018 0.00786225 0.0345672 0.244673 0.00780771 0.0256814 
0.164424 0.00787831 0.087278 0.220842 0.00786494 0.0816075 0.232026 0.00770989 0.0928437 
0.235468 0.00770111 0.10342 0.173398 0.00787333 0.185078 0.189997 0.007837 0.186895 
0.225271 0.00787716 0.196578 0.24353 0.00771099 0.208845 0.24352 0.0078814 0.245 

VERTICES 207 414
1 0 
1 1 
1 2 
1 3 
1 4 
1 5 
1 6 
1 7 
1 8 
1 9 
1 10 
1 11 
1 12 
1 13 
1 14 
1 15 
1 16 
1 17 
1 18 
1 19 
1 20 
1 21 
1 22 
1 23 
1 24 
1 25 
1 26 
1 27 
1 28 
1 29 
1 30 
1 31 
1 32 
1 33 
1 34 
1 35 
1 36 
1 37 
1 38 
1 39 
1 40 
1 41 
1 42 
1 43 
1 44 
1 45 
1 46 
1 47 
1 48 
1 49 
1 50 
1 51 
1 52 
1 53 
1 54 
1 55 
1 56 
1 57 
1 58 
1 59 
1 60 
1 61 
1 62 
1 63 
1 64 
1 65 
1 66 
1 67 
1 68 
1 69 
1 70 
1 71 
1 72 
1 73 
1 74 
1 75 
1 76 
1 77 
1 78 
1 79 
1 80 
1 81 
1 82 
1 83 
1 84 
1 85 
1 86 
1 87 
1 88 
1 89 
1 90 
1 91 
1 92 
1 93 
1 94 
1 95 
1 96 
1 97 
1 98 
1 99 
1 100 
1 101 
1 102 
1 103 
1 104 
1 105 
1 106 
1 107 
1 108 
1 109 
1 110 
1 111 
1 112 
1 113 
1 114 
1 115 
1 116 
1 117 
1 118 
1 119 
1 120 
1 121 
1 122 
1 123 
1 124 
1 125 
1 126 
1 127 
1 128 
1 129 
1 130 
1 131 
1 132 
1 133 
1 134 
1 135 
1 136 
1 137 
1 138 
1 139 
1 140 
1 141 
1 142 
1 143 
1 144 
1 145 
1 146 
1 147 
1 148 
1 149 
1 150 
1 151 
1 152 
1 153 
1 154 
1 155 
1 156 
1 157 
1 158 
1 159 
1 160 
1 161 
1 162 
1 163 
1 164 
1 165 
1 166 
1 167 
1 168 
1 169 
1 170 
1 171 
1 172 
1 173 
1 174 
1 175 
1 176 
1 177 
1 178 
1 179 
1 180 
1 181 
1 182 
1 183 
1 184 
1 185 
1 186 
1 187 
1 188 
1 189 
1 190 
1 191 
1 192 
1 193 
1 194 
1 195 
1 196 
1 197 
1 198 
1 199 
1 200 
1 201 
1 202 
1 203 
1 204 
1 205 
1 206 

POINT_DATA 207
FIELD FieldData 3
id 1 207 int
131 2346 5794 1013 1957 5883 7911 6741 2186 
1984 6357 3538 3028 1269 1458 488 371 17 
3392 1027 603 208 1247 563 1304 1011 4783 
1048 1064 95 5831 3003 1949 47 2804 4135 
2338 3760 3738 921 7074 4561 889 6484 3566 
3629 2301 618 1118 2507 6159 1820 3365 1869 
8326 2428 2361 5380 3374 2100 3282 4830 6454 
3192 92 2533 2171 2371 1496 1154 755 1836 
2053 7017 3628 4486 7899 8696 6133 986 258 
6251 2559 2078 1834 553 4502 4648 3327 6347 
8119 575 1621 180 1478 3341 1172 4546 2373 
1214 5001 8483 1368 187 2869 2118 3674 1383 
2221 8287 4136 1439 3043 1555 288 4951 1217 
396 378 262 1248 2494 1930 97 4362 2623 
3400 4504 498 1356 2748 6239 1047 5126 809 
1444 7842 1180 5244 662 2449 1785 3021 1503 
56 3539 1379 7100 1817 930 1833 1545 2195 
945 4273 4268 1874 249 787 7815 7117 4318 
4482 264 2151 1483 386 2152 1124 791 113 
764 1838 5920 4496 1686 2230 456 239 2606 
1625 1859 515 8673 1585 1793 7818 4478 4317 
3147 1577 88 305 2063 5071 2319 3472 1146 
5088 3270 2917 4661 1320 692 4356 1142 814 

type 1 207 int
1 1 1 1 1 1 1 1 1 
1 1 1 1 1 1 1 1 1 
1 1 1 1 1 1 1 1 1 
1 1 1 1 1 1 1 1 1 
1 1 1 1 1 1 1 1 1 
1 1 1 1 1 1 1 1 1 
1 1 1 1 1 1 1 1 1 
1 1 1 1 1 1 1 1 1 
1 1 1 1 1 1 1 1 1 
1 1 1 1 1 1 1 1 1 
1 1 1 1 1 1 1 1 1 
1 1 1 1 1 1 1 1 1 
1 1 1 1 1 1 1 1 1 
1 1 1 1 1 1 1 1 1 
1 1 1 1 1 1 1 1 1 
1 1 1 1 1 1 1 1 1 
1 1 1 1 1 1 1 1 1 
1 1 1 1 1 1 1 1 1 
1 1 1 1 1 1 1 1 1 
1 1 1 1 1 1 1 1 1 
1 1 1 1 1 1 1 1 1 
1 1 1 1 1 1 1 1 1 
1 1 1 1 1 1 1 1 1 

radius 1 207 double
0.005 0.005 0.005 0.005 0.005 0.005 0.005 0.005 0.005 
0.005 0.005 0.005 0.005 0.005 0.005 0.005 0.005 0.005 
0.005 0.005 0.005 0.005 0.005 0.005 0.005 0.005 0.005 
0.005 0.005 0.005 0.005 0.005 0.005 0.005 0.005 0.005 
0.005 0.005 0.005 0.005 0.005 0.005 0.005 0.005 0.005 
0.005 0.005 0.005 0.005 0.005 0.005 0.005 0.005 0.005 
0.005 0.005 0.005 0.005 0.005 0.005 0.005 0.005 0.005 
0.005 0.005 0.005 0.005 0.005 0.005 0.005 0.005 0.005 
0.005 0.005 0.005 0.005 0.005 0.005 0.005 0.005 0.005 
0.005 0.005 0.005 0.005 0.005 0.005 0.005 0.005 0.005 
0.005 0.005 0.005 0.005 0.005 0.005 0.005 0.005 0.005 
0.005 0.005 0.005 0.005 0.005 0.005 0.005 0.005 0.005 
0.005 0.005 0.005 0.005 0.005 0.005 0.005 0.005 0.005 
0.005 0.005 0.005 0.005 0.005 0.005 0.005 0.005 0.005 
0.005 0.005 0.005 0.005 0.005 0.005 0.005 0.005 0.005 
0.005 0.005 0.005 0.005 0.005 0.005 0.005 0.005 0.005 
0.005 0.005 0.005 0.005 0.005 0.005 0.005 0.005 0.005 
0.005 0.005 0.005 0.005 0.005 0.005 0.005 0.005 0.005 
0.005 0.005 0.005 0.005 0.005 0.005 0.005 0.005 0.005 
0.005 0.005 0.005 0.005 0.005 0.005 0.005 0.005 0.005 
0.005 0.005 0.005 0.005 0.005 0.005 0.005 0.005 0.005 
0.005 0.005 0.005 0.005 0.005 0.005 0.005 0.005 0.005 
0.005 0.005 0.005 0.005 0.005 0.005 0.005 0.005 0.005 

