# vtk DataFile Version 4.0
Generated by LIGGGHTS
ASCII
DATASET POLYDATA
POINTS 4242 float
-0.244327 0.0041014 -0.244964 -0.209363 0.00502251 -0.244882 -0.198081 0.00336915 -0.244869 
-0.183713 0.00366405 -0.244636 -0.162741 0.00945051 -0.244774 -0.144425 0.00309655 -0.244825 
-0.227575 0.0113905 -0.244962 -0.172448 0.0130455 -0.244078 -0.152763 0.0090146 -0.244679 
-0.217939 0.0119933 -0.238595 -0.20527 0.0125009 -0.236559 -0.191172 0.0118476 -0.242024 
-0.181706 0.0137643 -0.239156 -0.241536 0.001738 -0.234978 -0.212481 0.0091061 -0.230474 
-0.198325 0.00530755 -0.232822 -0.187944 0.00636312 -0.234218 -0.165518 0.00455513 -0.233363 
-0.151376 0.00271733 -0.235063 -0.142293 0.00730349 -0.235474 -0.225149 0.00584071 -0.234749 
-0.172762 0.0133569 -0.231202 -0.150561 0.013493 -0.234104 -0.133854 0.0141804 -0.236539 
-0.244999 0.00105337 -0.225503 -0.19292 0.00843428 -0.224971 -0.181016 0.00890602 -0.227245 
-0.157006 0.00997523 -0.22705 -0.145966 0.00954067 -0.226153 -0.136261 0.00718156 -0.225789 
-0.230346 0.00529184 -0.226027 -0.20424 0.0121974 -0.225674 -0.204128 0.00373339 -0.219937 
-0.185729 0.00550141 -0.218617 -0.175076 0.0113816 -0.219469 -0.244985 0.00366183 -0.215127 
-0.227259 0.00357866 -0.216231 -0.19717 0.00939582 -0.21351 -0.162436 0.00442475 -0.217522 
-0.149613 0.0121547 -0.216819 -0.138952 0.00919343 -0.216275 -0.244831 0.0142551 -0.215499 
-0.217418 0.00756326 -0.217854 -0.192684 0.0120472 -0.0187909 -0.234994 0.00211393 -0.209962 
-0.217512 0.00179473 -0.207275 -0.202119 0.00375822 -0.205809 -0.182018 0.00805908 -0.207699 
-0.168353 0.00553682 -0.207051 -0.146803 0.00520181 -0.206948 -0.209787 0.00853057 -0.210328 
-0.156985 0.010004 -0.208928 -0.142193 0.014624 -0.208478 -0.13151 0.0123689 -0.210353 
-0.244723 0.00920872 -0.204456 -0.21038 0.00319985 -0.200087 -0.191772 0.00545826 -0.204841 
-0.160291 0.00522873 -0.19996 -0.136677 0.00901601 -0.202298 -0.228073 0.008477 -0.205351 
-0.172074 0.0125187 -0.200067 -0.23487 0.00750906 -0.19795 -0.225435 0.00472379 -0.196235 
-0.19762 0.0060563 -0.196762 -0.186563 0.00419595 -0.196371 -0.172745 0.00167029 -0.197286 
-0.13074 0.00603515 -0.19482 -0.217183 0.0111999 -0.195754 -0.150954 0.00933075 -0.197568 
-0.244997 0.00338304 -0.191682 -0.178741 0.00535661 -0.190162 -0.160821 0.0127146 -0.191061 
-0.14971 0.00443699 -0.188844 -0.140132 0.0105156 -0.192114 -0.209121 0.0053871 -0.184739 
-0.244813 0.00607599 -0.181007 -0.23263 0.00697653 -0.185721 -0.223589 0.00989525 -0.182324 
-0.188423 0.00883444 -0.187172 -0.170903 0.0109684 -0.187201 -0.200621 0.00309087 -0.179608 
-0.189774 0.00123271 -0.177565 -0.177497 0.00373011 -0.178608 -0.158424 0.0090516 -0.181705 
-0.147966 0.00468865 -0.177764 -0.135499 0.00828806 -0.180878 -0.236455 0.00568737 -0.175326 
-0.222411 0.000630251 -0.170452 -0.166444 0.00676423 -0.173927 -0.209989 0.00778873 -0.17388 
-0.199977 0.00900133 -0.17072 -0.180199 0.0105311 -0.17129 -0.157454 0.010255 -0.171243 
-0.14214 0.012054 -0.174313 -0.188036 0.0130778 -0.164073 -0.168107 0.00585513 -0.164065 
-0.14256 0.00257005 -0.167561 -0.236624 0.00940848 -0.165459 -0.147463 0.0125463 -0.00371273 
-0.212517 0.0131498 -0.0722748 -0.139597 0.0139056 -0.164802 -0.243792 0.00365949 -0.161178 
-0.219297 0.0086188 -0.159155 -0.207662 0.00995322 -0.162573 -0.198138 0.0117255 -0.160027 
-0.17942 0.00804487 -0.161382 -0.151779 0.00720845 -0.163434 -0.23042 0.00730399 -0.15604 
-0.190385 0.00780554 -0.152685 -0.157694 0.00521998 -0.155556 -0.142857 0.00512208 -0.156565 
-0.165267 0.0121181 -0.156754 -0.238204 0.0120153 -0.147572 -0.215661 0.00661627 -0.146514 
-0.17236 0.00871934 -0.14963 -0.150803 0.00855908 -0.147024 -0.135178 -0.000228539 -0.148619 
-0.223115 0.0122385 -0.150467 -0.202486 0.013656 -0.150643 -0.175691 0.0129972 -0.0624497 
-0.159588 0.0139667 -0.146423 -0.13519 0.011933 -0.149777 -0.244686 0.0102426 -0.140166 
-0.19834 0.00305512 -0.141574 -0.18239 0.0103166 -0.144886 -0.167286 0.00986989 -0.140994 
-0.208737 0.00804396 -0.139284 -0.14047 0.0108443 -0.141086 -0.217773 0.00352883 -0.134498 
-0.188471 0.00777431 -0.136705 -0.149762 0.00890341 -0.13533 -0.133755 0.0044846 -0.137224 
-0.177565 0.00423113 -0.000955827 -0.177854 0.0140015 -0.136699 -0.159868 0.0146351 -0.134314 
-0.236978 0.00584183 -0.130354 -0.205484 8.89064e-05 -0.130594 -0.177615 0.00635006 -0.128148 
-0.227166 0.00802914 -0.131775 -0.197027 0.00816522 -0.131075 -0.168841 0.0107228 -0.130582 
-0.135585 0.0116026 -0.129118 -0.244951 0.00736113 -0.124208 -0.211404 0.00190949 -0.121339 
-0.201259 0.00373773 -0.12103 -0.168649 0.00744888 -0.119197 -0.156758 0.00863843 -0.124157 
-0.145736 0.00957048 -0.126211 -0.21034 0.00599573 -0.00492808 -0.221535 0.0114515 -0.12268 
-0.187021 0.00937609 -0.126228 -0.235951 0.00682761 -0.119848 -0.190951 0.00733405 -0.116938 
-0.178715 0.00729747 -0.117734 -0.158602 0.00973128 -0.11424 -0.130122 0.00934407 -0.11592 
-0.138933 0.0127251 -0.119605 -0.244998 0.00319121 -0.11445 -0.217588 0.00489298 -0.113967 
-0.207713 0.00316616 -0.111972 -0.167632 0.0011435 -0.109371 -0.147745 0.00663256 -0.113616 
-0.138535 0.00809386 -0.109781 -0.226059 0.0112155 -0.113691 -0.200764 0.0109459 -0.110307 
-0.244746 0.00653598 -0.104996 -0.234125 0.00863574 -0.103506 -0.223565 0.00640479 -0.104684 
-0.190756 0.00632891 -0.106819 -0.158048 0.00667988 -0.103121 -0.148106 0.00808664 -0.103409 
-0.212932 0.0107753 -0.106194 -0.181035 0.0084519 -0.107919 -0.17406 0.0137729 -0.0512093 
-0.217135 0.00598337 -0.0960122 -0.165945 0.00554439 -0.0970435 -0.13998 0.00595546 -0.0976245 
-0.204367 0.0134037 -0.100185 -0.184266 0.00970684 -0.0977206 -0.174608 0.0096999 -0.100303 
-0.195311 0.00739907 -0.095294 -0.174557 0.00141241 -0.09173 -0.187413 0.0145665 -0.213226 
-0.22996 0.010299 -0.094317 -0.150359 0.0131808 -0.0940458 -0.23909 0.00797885 -0.0909228 
-0.223532 0.00532107 -0.0879816 -0.212685 0.00191164 -0.0870518 -0.197394 0.00790825 -0.0849105 
-0.186001 0.00740266 -0.0871145 -0.135963 0.00330735 -0.0884203 -0.213744 0.013368 -0.0900112 
-0.153847 0.0109981 -0.0112529 -0.157506 0.0112408 -0.0870754 -0.233739 0.00957239 -0.0812725 
-0.186772 0.0031521 -0.0778141 -0.177338 0.00560063 -0.0800468 -0.147644 0.0126503 -0.0844338 
-0.244521 0.00845412 -0.0818257 -0.218213 0.0107317 -0.0811512 -0.181575 0.0140414 -0.00669291 
-0.168252 0.0107391 -0.0842872 -0.218215 0.00453202 -0.0732882 -0.205967 0.00123671 -0.0785347 
-0.195886 0.0077278 -0.0727984 -0.170622 0.0111552 -0.0745612 -0.160784 0.0104032 -0.0774068 
-0.140459 0.00879504 -0.0780123 -0.130621 0.00757058 -0.0746448 -0.191351 0.0142608 -0.00456117 
-0.235348 0.0073977 -0.0697933 -0.151446 0.00956731 -0.07181 -0.245013 0.00992004 -0.0699825 
-0.225654 0.0103092 -0.0698637 -0.203316 0.0127147 -0.0682508 -0.184188 0.00852906 -0.0685534 
-0.226508 0.0105475 -0.00406432 -0.136897 0.0129508 -0.0687888 -0.211375 0.00333004 -0.0660545 
-0.19424 0.00291596 -0.0619297 -0.175942 0.00299189 -0.06658 -0.162683 0.00628293 -0.0657418 
-0.145667 0.0102038 -0.0636948 -0.132875 0.00770378 -0.0600271 -0.244472 0.0065315 -0.059521 
-0.223062 0.00186652 -0.0574677 -0.17867 0.00422472 -0.056254 -0.16714 0.00835017 -0.0565387 
-0.15486 0.00623239 -0.0592567 -0.234925 0.0111382 -0.0605321 -0.214143 0.00922758 -0.0559613 
-0.20171 0.00994426 -0.0587728 -0.188164 0.00898908 -0.0567141 -0.23679 0.00657557 -0.0517375 
-0.206343 0.00847774 -0.0496716 -0.196257 0.00787787 -0.0505626 -0.159847 0.0112239 -0.0501471 
-0.142543 0.00975376 -0.0542191 -0.244858 0.00634949 -0.0454814 -0.216977 0.00762495 -0.0463313 
-0.175641 0.00342374 -0.0450278 -0.150207 0.0121559 -0.0475975 -0.136953 0.00696382 -0.0456843 
-0.227547 0.00881074 -0.0446503 -0.184826 0.00661857 -0.0474741 -0.236693 0.00723243 -0.0393003 
-0.219291 0.00772085 -0.0362892 -0.20891 0.00899159 -0.0400072 -0.190463 0.00336765 -0.038459 
-0.244886 0.0148534 -0.0388628 -0.162418 0.0109319 -0.00573522 -0.200013 0.0129662 -0.0374091 
-0.178293 0.00528259 -0.0108813 -0.164047 0.0135693 -0.0413405 -0.154952 0.00755894 -0.0376457 
-0.135851 0.00985037 -0.0359286 -0.244924 0.00666264 -0.0328011 -0.206846 0.00398584 -0.0301994 
-0.171808 0.0104217 -0.0358313 -0.16315 0.00731636 -0.0306875 -0.182776 0.0110167 -0.0344856 
-0.235524 0.00780762 -0.0292384 -0.215896 0.00551747 -0.02541 -0.191969 0.00468577 -0.0255367 
-0.171087 0.0079439 -0.0241518 -0.244978 0.0145898 -0.0264964 -0.225567 0.00880759 -0.0285525 
-0.199994 0.0105389 -0.026953 -0.149605 0.00818641 -0.0291441 -0.138999 0.00945721 -0.0263249 
-0.244496 0.00483655 -0.0209719 -0.226171 0.00738576 -0.0186569 -0.159402 0.00596298 -0.0178716 
-0.23636 0.0102104 -0.018704 -0.199139 0.00965567 -0.00981226 -0.206945 0.0136466 -0.0197803 
-0.182123 0.00714532 -0.0218478 -0.21395 0.00940944 -0.0140667 -0.188748 0.00484354 -0.0130836 
-0.170041 0.00190662 -0.0159006 -0.144957 0.00246005 -0.0174245 -0.135045 0.00418213 -0.0162259 
-0.222826 0.0147906 -0.0125534 -0.142428 0.0112285 -0.0133056 -0.244914 0.0112224 -0.0100444 
-0.233629 0.0123222 -0.21384 -0.244834 0.0110188 -0.170945 -0.226716 0.0120253 -0.169534 
-0.199074 0.0134378 -0.139465 -0.204477 0.0126211 -0.12609 -0.150184 0.014799 -0.182043 
-0.226175 0.0143702 -0.140751 -0.208428 0.0132699 -0.0814178 -0.18816 0.0132821 -0.076404 
-0.21085 0.0143027 -0.118561 -0.239629 0.0146974 -0.244925 -0.195591 0.0149277 -0.232093 
-0.220589 0.0145757 -0.228325 -0.163236 0.0148266 -0.105833 -0.178374 0.0149111 -0.0837093 
-0.244952 0.0102848 -3.35231e-05 -0.137335 0.00564613 -6.34175e-05 -0.216894 0.0145881 0.186307 
-0.204834 0.00889606 0.00430238 -0.185965 0.00716276 0.00453338 -0.167195 0.00845428 0.00486225 
-0.232716 0.0146467 0.153933 -0.217016 0.00845589 0.00484966 -0.179104 0.0122796 0.222567 
-0.175477 0.0137532 0.00271468 -0.155904 0.0133049 0.00180841 -0.22662 0.00226221 0.00525777 
-0.149715 0.00608542 0.00875321 -0.23731 0.0102882 0.00823023 -0.159565 0.010918 0.0107985 
-0.138813 0.00911602 0.00920822 -0.245007 0.0079171 0.014148 -0.215109 0.00129451 0.0145659 
[...]
POINT_DATA 4242
FIELD FieldData 3
id 1 4242 int
1341 2638 3543 538 1792 3489 5 1003 525 
1774 1783 3898 1313 3930 917 2202 451 3494 
3551 1477 445 2210 13 870 480 3187 12 
7 3631 4066 3472 1337 3484 453 484 471 
2178 2627 2217 2337 2693 2222 2218 142 3063 
586 3922 2606 3024 3190 2185 2216 454 3942 
1354 1350 1761 3025 919 475 531 922 481 
8 47 2176 1012 2628 3056 2184 1353 3902 
177 492 909 3495 3466 2209 590 596 1420 
36 535 477 1483 606 3035 3938 1413 62 
2607 907 3946 3624 2325 1778 465 3926 1904 
2599 2277 3504 2632 1796 1338 3461 3059 450 
2256 3077 1363 3511 54 1310 1775 3134 576 
3931 4034 1900 1793 3462 59 1348 2221 1321 
899 163 491 880 2636 1418 2179 488 181 
1762 448 58 2195 926 1467 3113 2314 906 
10 614 912 2746 3542 53 1837 2644 1801 
1339 3163 2339 868 2220 3532 2629 2764 2201 
581 3 3037 2200 1798 1362 877 485 52 
1352 602 1375 2649 1849 3985 1322 1781 2180 
3471 3189 1757 3943 3196 1357 3071 872 1416 
905 2647 3120 1356 3490 2211 2699 1411 1788 
1342 3992 3147 961 1856 1838 3951 1884 55 
3159 3186 634 3076 2309 1343 1751 1795 3630 
1794 3932 483 1360 74 1784 2196 1760 1361 
3028 3506 1340 3892 3947 2645 35 452 467 
1759 1753 2756 1912 9 11 2183 3468 553 
1347 3521 3104 3032 473 493 1311 3635 1333 
3903 3510 50 875 2635 2236 176 2620 869 
889 2205 3108 1401 476 1316 490 902 2223 
3929 3054 206 89 873 883 3047 3928 3031 
1054 2353 3643 935 220 67 879 3465 468 
466 3893 3509 63 1408 3899 1044 1786 3483 
487 1358 1924 874 1908 3045 2664 218 3202 
1334 3949 3516 3069 914 2652 175 923 3470 
3158 77 2 2642 1379 3975 1359 548 4026 
3093 2650 3229 2667 80 2655 893 2614 2637 
3052 3236 3963 2659 1336 3578 3968 3520 1470 
505 512 3978 3110 2203 3512 896 2204 3971 
4073 4015 4071 34 33 2349 3579 1813 3917 
43 211 3213 3106 17 71 1947 3973 3513 
1827 2672 3145 3148 2250 91 2675 2225 3918 
3228 92 882 1528 931 1776 2611 185 4094 
1394 93 1826 187 470 1767 60 2661 23 
4104 499 1367 1331 947 1501 948 29 1475 
3094 1069 2374 3979 523 3957 2669 64 3955 
2233 2363 888 1833 1785 1424 3907 461 3515 
1374 3522 449 1373 886 3518 66 4024 3097 
3910 1814 3088 84 1061 2229 936 3981 2615 
1505 1830 2244 2677 549 3039 463 3534 3648 
2663 2241 3527 3479 2237 4077 3524 944 18 
1380 2253 1809 3517 3101 518 1771 3535 2378 
193 1382 1370 1063 1500 1879 3111 3087 1764 
1376 514 2293 2240 1810 940 2612 2768 2230 
2242 3657 1372 1862 3475 1087 1511 2226 1377 
2722 1389 520 984 3082 3531 3478 1962 1429 
460 2191 1383 3153 1824 1378 930 3098 3109 
929 2234 2188 2186 2783 955 507 456 3539 
32 27 2707 3916 1816 95 952 3911 1808 
1946 949 2231 458 3529 3972 1821 2769 954 
3964 4074 934 3961 1815 1770 1768 24 219 
1817 2238 506 1422 3528 3967 1392 199 2613 
884 72 2674 3976 1871 895 500 2192 3481 
1423 3080 2657 19 508 3913 1766 3921 1386 
567 3083 3569 1391 1395 1060 2224 3966 69 
457 1516 3915 3092 3953 2189 942 1071 503 
3085 3956 3980 927 3906 1930 2232 3046 2608 
68 945 3538 4111 2383 2227 28 1934 1371 
559 3230 3204 3537 900 3502 2597 474 1476 
482 99 3498 1755 2215 40 1325 871 3065 
2640 2634 1344 1366 1750 3034 2182 3950 1777 
3460 3029 4004 2379 904 1323 3038 3492 876 
1842 489 4001 3927 3180 1317 3055 39 608 
3053 1800 2736 1779 2625 3070 486 464 2214 
1345 2208 15 3061 3074 1906 1320 2207 16 
901 925 3486 2622 1752 1351 444 911 2263 
1032 1019 1797 3057 910 2177 3112 3545 1758 
2641 2212 2623 4050 37 2601 1791 2602 2598 
2648 4053 162 96 2631 921 915 1312 2197 
3925 1445 3051 3079 898 3894 951 2199 109 
1031 3130 3487 966 3116 3068 1349 46 2752 
3896 3195 1883 1346 1756 3544 3467 3463 2732 
881 2639 3115 49 2328 913 1923 3060 1355 
1898 2198 2624 2755 3482 903 3944 45 1010 
1406 3459 3469 3936 3508 1 446 3078 3049 
2621 3607 3935 479 510 2219 1315 2600 3026 
878 22 1799 3503 2646 2334 1905 3036 1852 
3030 2698 3050 1787 2326 41 3491 1479 3182 
3904 2766 1365 3994 1950 4049 3485 38 3940 
2181 3033 2643 1330 3982 1911 182 3464 3095 
3897 2604 2336 3561 594 3923 462 1318 516 
3064 3919 3044 44 2633 169 625 933 1807 
3041 3958 1874 81 1332 1393 42 1443 2723 
2251 1802 1834 519 1895 3477 2656 916 938 
3924 4080 2626 2679 3081 3141 2342 1328 498 
511 3671 3969 215 1397 2235 1381 3480 4013 
4076 1388 3530 501 2653 2239 1937 892 4083 
558 509 3914 2670 1822 4106 1763 194 496 
3965 190 950 21 515 86 3962 1823 88 
3474 2248 3912 1820 3099 3048 1819 3043 126 
2280 2254 3952 2654 3970 628 495 3144 1811 
643 1945 937 217 561 941 1384 2678 2193 
4091 224 2781 25 2676 956 2724 1369 2804 
1385 494 2243 637 20 981 1828 890 3100 
3523 2347 3570 2190 3533 459 2651 1436 1327 
3476 1499 3103 2809 3091 1326 513 3920 2247 
3107 3644 30 2673 1390 216 2666 128 521 
2252 2668 939 3960 1963 1772 2658 1812 1769 
932 2713 2228 1062 2609 3959 225 894 1335 
1520 1773 76 497 3090 90 85 2617 2294 
891 1329 517 75 2660 2610 887 94 3084 
4082 4017 3086 953 2665 2791 4103 3231 2356 
51 209 1324 3604 149 1803 1035 158 4033 
604 607 4039 589 469 3598 2042 3933 2762 
526 2012 3022 3552 447 3126 2466 2680 725 
112 3622 3983 1882 3891 3620 1922 3984 1461 
3133 2271 1026 1016 1040 3619 2730 3119 61 
152 1319 2264 4064 2329 974 1839 3986 3118 
1486 3610 1412 1015 2759 2754 3998 4070 3988 
144 2301 1447 4068 529 3760 1402 103 2315 
3560 1480 3556 2333 4041 2020 4173 2603 1028 
3686 3298 3628 2259 178 573 578 1896 3602 
1014 3554 167 3496 104 2687 1789 1749 740 
245 1894 2697 106 3937 4037 3895 2327 1846 
977 1462 1398 1918 3609 2749 48 610 4047 
1754 183 2311 1909 962 161 4036 973 612 
1890 3623 3122 731 4060 543 3591 2696 3129 
3201 598 1919 3171 2757 4031 1419 970 172 
3996 3173 4002 1024 1888 2272 3027 572 957 
4054 186 1913 574 1030 281 527 1474 3128 
1018 4187 2398 3596 2690 3548 1579 173 1782 
2387 528 4043 297 1022 101 3121 4190 3310 
2821 2307 2753 3131 530 3592 1850 675 3654 
2763 4045 3692 924 1452 3181 2861 3615 2684 
544 1484 2695 3603 545 1853 1041 1886 1920 
1843 1409 148 969 584 1915 599 4038 2725 
2803 2257 3608 4052 3590 2274 116 1466 1314 
1765 1456 2213 3193 2260 4051 2726 1482 1058 
6 4062 2009 3565 2310 1117 1840 2685 3308 
1654 547 532 1450 180 3595 3605 2343 1867 
4172 1097 1013 3168 504 1039 4048 1004 2332 
145 3613 3690 1043 3553 4007 3160 1430 1005 
2255 1914 3621 2889 110 1444 542 1029 239 
1848 3191 577 555 3612 157 2396 3611 1903 
1472 2308 963 4 2306 4046 3172 1637 3549 
159 2322 2727 2344 2822 1459 308 4055 3993 
1512 1078 4108 3058 3175 3114 623 3233 2276 
1400 4078 1790 1471 3629 4035 3300 3167 184 
1405 639 82 3559 2702 3205 2748 2299 3733 
192 346 2758 2742 2354 2922 2761 1034 1455 
2733 2694 960 1453 2340 2041 3125 3555 2731 
1437 2740 146 885 151 585 3188 1048 1100 
3574 1473 2278 975 3493 3995 2319 195 3212 
2786 982 1407 1889 3217 3908 1495 1865 1526 
3639 4006 1210 1938 2292 1119 3650 223 3146 
1033 1188 2630 4009 1944 1861 3207 1052 550 
3235 133 630 125 695 122 1025 1916 2286 
3540 2352 653 4014 1428 3716 120 1053 3241 
1565 3333 1067 2366 1932 3673 2775 3137 3224 
3662 2784 4008 4223 3222 2717 1426 757 136 
2706 100 3668 1868 2288 212 1942 2793 1926 
315 342 3573 2788 4216 1502 1878 4025 4150 
124 2719 2300 1646 1881 1951 4010 641 551 
636 1804 2721 1925 2364 1955 3663 4227 4139 
2384 1196 655 943 3203 1949 983 2298 1047 
4081 1876 2847 1506 3645 3227 3781 3040 1081 
3585 3646 321 3641 3773 2933 2291 2704 229 
563 1438 2703 1939 2355 1431 3157 616 3637 
340 2913 205 3571 570 618 1059 3636 1435 
3216 4212 140 3783 1064 1497 4089 4100 2720 
2773 552 2056 2297 2362 3642 2245 651 1493 
3234 1057 569 1941 632 2777 1494 1927 1574 
78 1805 3135 645 997 2799 207 4086 1873 
2373 991 3139 1492 629 2772 568 2841 571 
502 3589 3238 1000 649 1055 2296 1051 3577 
1515 619 213 3140 3096 2086 2800 1954 3581 
946 1065 1079 3669 1046 1965 1002 994 1866 
137 617 2787 992 3102 1082 201 3136 1514 
2712 1863 4084 202 1956 564 1928 3586 31 
626 2279 556 3225 1491 1086 3149 621 1527 
1001 131 2794 4085 1959 1049 4098 1518 4075 
455 3588 615 79 2805 3576 778 1433 566 
65 1490 191 694 3536 3647 1524 648 1211 
1496 143 1940 4097 3634 2782 698 268 622 
4023 2616 1877 638 1960 4028 134 928 1509 
3519 203 1933 1869 4110 4027 2505 4101 1070 
2779 2808 3582 4136 1076 1504 3977 1489 4215 
554 1872 2371 3661 2375 1368 2187 1488 986 
2246 3632 640 562 3154 4107 2380 204 3627 
1417 4169 601 4115 1921 3599 1552 2317 3164 
155 1009 1109 3166 1403 3557 745 978 964 
579 2464 2324 4058 4000 2681 150 2738 2270 
2302 2451 3473 3616 3547 2312 1841 4005 2729 
2728 2750 3075 1410 2760 1448 2267 979 3263 
3183 179 1011 967 2331 524 306 3178 1037 
3728 4065 3761 2268 2462 3067 714 3197 536 
1027 1907 1468 1460 107 3177 4057 1023 3987 
3174 1845 1446 1899 3729 174 4030 147 1891 
1902 2744 3606 600 959 2305 2040 3169 546 
2686 588 1592 583 4003 1854 971 108 156 
2275 968 1464 2258 170 295 575 1163 3614 
2206 105 3948 2265 597 2691 2269 2320 102 
3997 1897 3990 4061 1858 595 3939 3124 4067 
3558 154 603 1893 605 587 908 918 1038 
4171 2734 1971 2266 1451 972 539 3248 592 
541 2700 168 117 3127 3625 1887 1844 2701 
1857 1885 3198 3307 2341 1995 4042 3618 3170 
1851 2321 3062 976 2692 1017 196 593 3709 
1006 1454 533 3562 98 472 652 2771 3905 
2682 2351 1036 1399 3750 2295 1396 996 4069 
2316 613 2407 4040 3185 4198 3215 1449 1415 
2376 70 1510 198 1085 1917 2261 3245 129 
2605 537 3220 2002 2709 3594 609 3258 3105 
57 3192 2688 3567 189 3653 1864 1936 1957 
3218 654 123 1948 222 2290 4029 987 3672 
3665 3617 4087 3784 965 3194 3364 2369 2194 
118 2419 1521 1619 1425 620 2780 3206 2287 
4090 1517 3791 2358 1991 1659 2368 1131 1836 
3649 2415 635 4079 565 2481 1074 3242 130 
228 113 3703 3221 221 3208 642 988 2069 
4020 2718 3711 3237 1525 1080 1943 1432 153 
2425 2662 200 2006 1831 3587 995 1966 3223 
121 1953 1990 329 1123 4018 3954 1202 210 
4011 83 214 2249 2801 2710 3666 1441 2792 
2785 3214 2074 1075 748 1508 3526 647 1427 
1073 2708 3240 3525 2807 656 993 2282 1522 
139 633 2281 3656 2774 3575 2671 4092 3568 
3583 3660 2377 3143 4112 3142 3155 2348 2359 
1077 985 1066 1434 2795 2386 3909 3670 644 
2501 2907 4102 522 627 2285 2283 2802 3658 
631 4109 2790 2714 138 990 1961 3708 3209 
2350 1056 1050 4012 3633 1832 3211 3156 227 
135 2778 2705 1387 998 2711 127 1498 1825 
3566 1573 3659 560 4022 1935 1870 980 208 
1084 2497 1442 2824 2818 1986 1267 386 244 
3292 166 1910 3252 4282 1855 674 2453 3294 
1972 1147 2432 2403 710 3564 2875 310 2013 
705 3731 3600 4164 4188 2814 282 3244 171 
2745 3755 1174 248 3316 1108 3423 2765 729 
1981 2434 1706 670 2442 247 2810 3184 663 
4165 160 3794 2884 3254 1835 2019 4177 2954 
3328 1546 2313 2318 1021 660 1007 3261 2862 
1093 700 4121 3251 3313 298 2037 3726 4197 
611 2007 3684 3846 669 2026 119 3290 3293 
3322 4191 1169 1155 2827 662 2819 3255 3730 
3266 4192 2303 1969 2036 2828 3330 232 3687 
2747 4120 4166 2867 3677 111 1598 1548 274 
1585 659 3291 4122 2894 1615 719 4118 832 
738 3306 1578 3732 3737 238 1982 1094 1595 
1968 3597 3754 734 2405 1605 2448 2441 720 
243 3303 4125 1158 1976 671 3165 1149 1596 
1531 2452 3695 724 814 3745 4056 3751 1138 
1988 2456 2457 3762 739 3727 1535 165 2404 
1590 3326 1593 2880 672 2735 1463 1168 2435 
733 2866 3674 1539 1599 2440 2433 4160 3253 
2823 1146 4182 2338 2071 1008 249 1142 2461 
2811 2869 3756 1576 2262 280 736 3845 1170 
732 305 4181 3626 2015 1088 1144 1478 4032 
2878 2874 2990 580 1107 301 2471 3743 2767 
1641 3683 3838 277 2021 3200 2028 2304 1711 
540 3296 2741 2831 4185 3758 278 1096 283 
2394 1156 3723 2859 2027 1150 4159 188 2877 
3265 309 1538 821 4105 290 2891 3260 1975 
2813 2467 381 279 715 2018 3682 4127 2751 
2868 4312 722 337 716 2860 3694 287 4287 
251 2039 2323 2436 307 2881 3325 3763 1101 
1537 4296 3250 1551 1141 4119 2045 4113 1414 
4141 1901 3563 2008 1143 4184 2437 404 236 
2389 2890 300 1133 4174 1165 4132 1102 1602 
385 3772 2393 1208 2444 3753 1457 4149 1617 
275 4162 1481 2871 703 1161 2447 534 3697 
3162 1983 704 1547 4194 1113 1245 3353 1586 
1440 255 4218 3259 2900 3151 680 1609 1571 
3680 4145 4228 2089 2914 3287 2088 2854 3273 
1167 1974 697 3792 1194 3275 999 265 773 
4099 1159 349 3280 4161 3685 1612 3278 259 
2507 2479 789 4234 2925 1136 2064 4263 4231 
1126 3336 4138 2413 2289 332 2068 1563 3702 
1127 582 3640 338 2079 2463 761 2060 3999 
1092 2382 1068 687 2916 1192 2503 2930 2054 
3256 2480 2160 4230 2502 4206 2421 4203 691 
2101 261 756 4044 646 4225 2003 235 1558 
2474 253 4170 2485 2915 4200 1556 2504 760 
335 2917 3343 2929 1124 1994 2049 1487 3572 
1650 2595 4237 2066 3719 684 3349 350 3277 
1647 765 4152 3270 4213 686 776 380 3638 
3341 443 242 1132 2910 693 3271 4222 4156 
781 2833 2109 2420 2416 1653 3352 1195 3354 
679 4146 4221 1130 2414 3788 4202 3824 3706 
4224 1212 1214 754 767 320 4318 3362 1621 
2935 2856 1190 2051 3338 2428 372 3274 4325 
3444 1129 2370 317 1651 4236 1620 324 1289 
1203 3698 1723 270 2498 2512 2918 3366 3365 
318 3823 3803 3358 2513 3447 696 3279 3710 
3769 2070 3239 3356 2926 1631 2067 3796 3283 
2494 4021 3346 1575 3652 2431 382 3284 2424 
766 775 2796 1623 3713 322 2372 3371 1215 
2506 2078 2846 258 1572 2427 2410 271 2511 
3701 4144 4211 1652 352 779 3765 2478 4096 
1952 2770 1640 1628 3288 1115 2057 1880 326 
328 4220 1658 4093 4199 2928 3718 1958 1120 
1560 1629 4155 3785 3580 3369 1121 345 2053 
1860 3779 3019 1503 2853 3332 1639 1626 1559 
1992 624 1507 3272 1072 4153 3276 692 1727 
2052 2912 699 344 2085 3801 2361 1200 1648 
1996 1176 2488 2568 3651 197 3350 650 264 
3342 3828 1439 1999 3286 4229 4217 3152 1112 
2346 226 1633 3267 2055 2937 1638 4233 1421 
2845 2058 1083 4143 755 1197 1931 2882 1183 
269 1603 3691 1674 1553 771 3264 689 2455 
557 3584 325 2050 1644 4158 4295 1465 3413 
3314 1588 3746 3422 4196 3681 3721 4131 1582 
2273 4180 2017 4117 1534 3991 2044 4175 2896 
1103 3323 3372 2870 285 97 2010 233 3321 
2817 1610 2873 1110 3601 367 1404 4186 1544 
667 1577 708 709 1604 3319 1140 2397 1581 
3289 2816 2812 1542 668 4163 2872 257 1973 
1099 1978 2408 2879 291 711 3679 784 3749 
3302 2014 2335 240 2473 3740 4195 4284 2683 
1148 3407 4130 2034 2689 1469 2564 2743 665 
289 2460 1160 3176 1166 2468 1688 3304 2542 
3747 1892 3989 1532 311 1530 1589 707 3132 
3247 3246 3759 3301 3742 2459 1591 3117 1162 
273 314 3744 706 3689 958 2465 2739 3593 
299 3161 4167 3546 3318 293 3693 3309 1536 
2454 114 2388 1222 3757 1485 3257 2445 2863 
4183 727 2829 1583 3249 1134 1090 2519 2446 
3774 4126 1173 115 3738 3295 661 1616 2023 
1718 1731 2402 4129 164 713 3317 677 3311 
1139 304 246 3375 3324 4189 1458 2096 3688 
1632 2905 1529 2399 1540 2991 726 3232 3199 
2737 4176 2084 3379 231 723 2892 296 3281 
1847 2022 730 2472 2826 2367 2330 1929 2035 
250 1135 701 2876 1154 3676 2888 2470 2487 
2080 2902 1987 1205 1608 3410 4063 2024 2883 
2043 2886 1157 2449 2046 2098 2360 4059 2938 
1095 2903 3795 4205 777 1238 2458 1042 2508 
728 3334 267 2062 2510 3821 3331 2164 1967 
3798 3451 1977 2005 2850 2065 2911 1179 2715 
1642 688 2934 3340 3806 3335 1286 3764 319 
3655 3282 2798 2899 2429 3836 2939 3138 2149 
330 3348 2001 2852 712 3345 3219 254 1213 
3720 1300 3351 1643 4226 2154 2776 327 1859 
2865 4316 1237 2806 4148 2173 4072 256 1128 
2381 2418 339 316 2842 2844 2797 2076 2500 
2839 2484 303 3226 769 774 4147 3771 3360 
768 1566 331 3714 762 2514 1568 2385 2716 
1206 744 1677 1181 343 4154 2908 764 3768 
2357 2837 681 845 1198 3799 2901 4210 4016 
1201 1184 1567 4088 690 2083 1649 743 1045 
1177 2904 1625 4157 2509 4019 3786 4151 1523 
1627 752 266 347 1998 2284 2365 3804 1199 
1645 2345 1193 1122 770 1185 141 3337 1656 
3712 2789 1564 3775 1114 989 678 3707 4137 
2843 2059 1997 4142 763 1630 3361 3449 2919 
1736 862 3819 1875 355 334 3704 3436 1513 
4095 3363 333 2000 4235 2906 3778 132 3359 
2927 3700 2061 272 3667 1655 3150 348 1635 
2489 2103 759 1562 3664 3243 2923 408 230 
2970 3383 2144 3412 1696 2117 1673 2048 4283 
4135 1989 1255 836 2141 1265 2898 4279 2562 
3809 2143 4179 1276 2038 3725 2099 3409 3839 
2950 2522 2135 4277 1985 2565 394 276 2543 
2011 3739 1980 4178 3849 4247 3262 3315 2122 
2047 2945 702 2391 400 1266 2115 395 4245 
1543 1703 2968 3854 1550 4273 3424 3378 1268 
3832 2563 3829 1228 3843 811 2541 237 358 
1271 3811 2128 807 2544 4275 3748 2033 3377 
1218 4276 4168 2864 357 4292 3374 3856 1226 
364 2953 810 4251 829 3380 812 2401 2138 
411 392 826 2895 1611 3408 2974 4299 1712 
813 1697 2545 398 830 1153 3382 2858 1252 
2521 1172 1979 2524 2439 1715 3844 3852 1275 
3834 2133 1257 3734 2142 234 1672 2438 3381 
3384 286 292 2392 4128 3860 1253 2830 1707 
4240 2547 816 3376 2951 1217 2390 1145 1668 
1258 4302 1600 4244 1580 2131 2975 822 2469 
2537 1662 1248 1671 2140 2987 4297 782 1669 
390 827 666 2116 825 406 3807 2518 2126 
3858 2549 1665 2546 1272 3833 1693 1700 1970 
3840 1601 2092 1175 3018 241 2946 3847 399 
1243 1663 3427 2118 2129 3428 2940 835 1984 
3812 361 2943 1260 4124 2982 1098 2820 1225 
3835 359 1221 1699 3417 3857 1698 2941 1613 
2893 391 3415 2120 2557 1708 402 1250 1164 
2030 809 806 2815 2885 2517 3425 4285 1277 
1545 3399 3421 1091 3741 2986 4298 2985 2526 
2978 838 1709 403 2897 664 4280 4301 2016 
842 2114 3808 3724 4289 820 657 4328 1283 
1713 2981 2124 4261 840 1263 1229 2097 2450 
3881 4242 796 3848 369 1694 854 1254 4114 
1151 2967 828 4291 780 4193 3320 1246 3441 
3805 791 2979 721 4243 834 2948 4241 3405 
2167 1587 360 3003 3395 3458 4238 2536 2107 
2100 1303 4309 2157 1614 2834 3355 2984 2104 
2992 4317 2087 1555 2958 2964 4272 819 1704 
2835 440 3766 2931 3815 3884 2168 1666 1678 
3394 1204 2165 1230 2955 431 4320 3789 2994 
3419 3443 848 4264 4307 4331 2528 2532 2483 
2995 1554 2119 741 2587 2169 3021 850 2921 
3820 1557 435 859 3874 1569 1295 1683 1725 
3454 2106 1993 3885 1216 4259 1732 1741 1241 
2530 2579 1742 793 2838 3016 2909 4326 377 
427 2426 3717 2499 1236 2075 383 262 860 
419 804 373 794 3386 370 4310 3357 1207 
2554 374 2534 1290 1738 847 3008 2491 1679 
3393 2490 1242 2162 354 853 4332 2533 3446 
4305 1180 2102 1680 3814 2430 3440 3015 4271 
434 2105 3429 864 2961 2004 2566 682 4313 
1294 2495 1719 3822 3012 379 1189 4256 2172 
801 416 1118 1743 3438 3715 3020 421 1291 
2111 263 2146 260 2476 2590 1297 750 2417 
430 2924 4266 3887 2584 2113 1636 1624 863 
4258 3868 1304 2423 2492 1733 3776 839 802 
3780 4204 4319 2156 3826 423 4208 2163 4303 
3017 1306 425 1302 2571 3433 4209 3825 2150 
2960 2575 753 414 1737 3442 1296 3392 2848 
1239 4329 3705 1744 3876 3455 3388 4314 2477 
856 1721 841 2411 1111 417 3431 2567 2155 
3011 4262 3878 1244 2583 437 844 2159 2475 
797 800 3004 1729 2166 3434 3790 3886 3007 
1299 3456 376 432 3872 3339 426 1730 3445 
3367 3879 2529 378 3453 4260 1634 418 2993 
2171 2997 3390 441 758 1570 3777 1734 3397 
3391 3013 3863 4239 683 3880 1676 1726 2496 
3699 837 3787 323 2574 1233 1717 1584 401 
1661 4253 4294 1660 2029 1541 1256 1597 3678 
2409 384 3329 2523 2972 3299 4116 1152 1667 
2175 3850 1269 4133 1219 2947 658 1695 2983 
718 2963 4254 2031 2406 2988 3735 2548 3841 
815 407 3416 388 4250 4274 2094 2977 1171 
2552 2556 2550 4134 3404 2400 2025 3403 1224 
3402 2134 1137 2123 368 831 3842 2145 2553 
2942 2095 1106 737 3855 1705 2527 788 2539 
4246 3305 2127 2825 1261 2561 1606 3810 4249 
2132 3851 2125 4293 1710 2969 3859 363 2966 
786 3400 2971 4255 2973 405 313 2952 302 
3406 1227 1716 3813 3675 3297 833 3312 1689 
3420 2093 4281 2887 1262 2121 2944 3736 387 
2137 2531 3327 1089 1594 284 787 785 1105 
1533 1664 2130 717 790 1691 2136 2443 2996 
389 3831 409 824 1270 2032 2090 2520 1607 
1714 2855 1278 252 1692 1549 1701 2559 3837 
3418 3853 2515 4278 2832 1223 393 2560 2558 
4288 1264 3873 3368 365 2980 1251 412 1702 
2152 2989 1690 2965 3722 1249 673 410 3373 
3752 1104 438 1220 2956 397 288 3426 2949 
1670 1720 3865 356 783 1259 2139 795 396 
1685 362 1739 2412 3344 3347 294 1657 823 
4269 817 1281 341 792 676 375 3385 4290 
1305 4308 866 4324 3414 1681 4286 4123 4232 
1622 1308 1274 2151 772 3782 2395 855 1561 
3268 1116 4219 1240 3890 3432 2077 4270 413 
3389 2976 808 2836 857 3864 3014 2573 1234 
4306 428 4321 4257 2538 3800 3437 2998 865 
4304 1748 1187 1293 3002 2840 2588 2108 3439 