# vtk DataFile Version 4.0
Generated by LIGGGHTS
ASCII
DATASET POLYDATA
POINTS 4217 float
-0.225217 0.00469986 -0.24465 -0.21209 0.00461746 -0.243805 -0.193717 0.0097268 -0.243021 
-0.185207 0.00452381 -0.244384 -0.174577 0.00534002 -0.245002 -0.164561 0.00529692 -0.244983 
-0.134489 0.00497176 -0.244893 -0.204582 0.0130051 -0.244876 -0.148028 0.0147068 -0.244915 
-0.235003 0.0048277 -0.238323 -0.202067 0.00473925 -0.238988 -0.148083 0.00464487 -0.241376 
-0.169193 0.00484058 -0.236127 -0.157464 0.00452957 -0.237921 -0.17996 0.0103733 -0.238147 
-0.158728 0.013595 -0.241929 -0.141924 0.0106776 -0.236244 -0.242667 0.00594664 -0.231991 
-0.224498 0.00445493 -0.23316 -0.2096 0.00652831 -0.232223 -0.187268 0.00487421 -0.234173 
-0.177846 0.00446845 -0.230384 -0.13495 0.00464911 -0.230356 -0.217877 0.0117025 -0.234742 
-0.201023 0.0125281 -0.232819 -0.187793 0.0149585 -0.231928 -0.161188 0.00861153 -0.229604 
-0.233417 0.00473184 -0.228444 -0.2177 0.00495662 -0.225843 -0.16927 0.00456928 -0.225034 
-0.145558 0.00448839 -0.229211 -0.226244 0.0105208 -0.223969 -0.203867 0.00652104 -0.224015 
-0.152445 0.00928112 -0.223885 -0.133483 0.012857 -0.22489 -0.244703 0.00511741 -0.222215 
-0.235412 0.00459281 -0.218645 -0.211673 0.0066264 -0.217765 -0.187528 0.00468953 -0.222471 
-0.136229 0.00448977 -0.220224 -0.192935 0.0138635 -0.222896 -0.173447 0.0122574 -0.219524 
-0.163586 0.0124169 -0.22071 -0.224748 0.00501159 -0.213707 -0.190127 0.00579236 -0.212782 
-0.179342 0.00484473 -0.216465 -0.167047 0.0052893 -0.214634 -0.147172 0.0044723 -0.216959 
-0.231989 0.0131267 -0.214793 -0.202181 0.00749395 -0.211805 -0.156376 0.00896662 -0.214715 
-0.20946 0.00559281 -0.205172 -0.244942 0.00933383 -0.207821 -0.218965 0.0129667 -0.210074 
-0.137817 0.0101235 -0.211448 -0.22941 0.00497937 -0.204883 -0.219447 0.00501574 -0.203994 
-0.200732 0.00449268 -0.200457 -0.181259 0.00455884 -0.204537 -0.164494 0.00448324 -0.204997 
-0.153767 0.0069938 -0.203098 -0.144333 0.00458893 -0.205436 -0.134657 0.0052615 -0.20298 
-0.235528 0.0131284 -0.203396 -0.19342 0.0100317 -0.204267 -0.175725 0.0128915 -0.203835 
-0.16521 0.013726 -0.201472 -0.173107 0.00466779 -0.198339 -0.242241 0.0044835 -0.197941 
-0.23269 0.00476834 -0.194499 -0.161476 0.00464702 -0.195442 -0.147512 0.00454489 -0.192634 
-0.194283 0.0121353 -0.194456 -0.182559 0.00789481 -0.194794 -0.142248 0.0120505 -0.198288 
-0.221346 0.00483579 -0.19383 -0.210252 0.00455578 -0.192873 -0.20024 0.00458601 -0.190496 
-0.189852 0.00453237 -0.187709 -0.135867 0.00469472 -0.191547 -0.171127 0.00943749 -0.189702 
-0.146994 0.0135006 -0.188187 -0.22751 0.00477286 -0.185313 -0.235312 0.0107893 -0.186944 
-0.179975 0.0046543 -0.185615 -0.160696 0.00625205 -0.185562 -0.151217 0.00447628 -0.182427 
-0.245019 0.009547 -0.188917 -0.219308 0.0110857 -0.185529 -0.236281 0.0145851 -0.0161064 
-0.196822 0.0109855 -0.183658 -0.244616 0.00505641 -0.179969 -0.224101 0.00860978 -0.176752 
-0.169719 0.00451052 -0.180992 -0.137338 0.00869372 -0.181253 -0.244702 0.0135216 -0.173477 
-0.146244 0.0134417 -0.17822 -0.233015 0.00492073 -0.17329 -0.160693 0.00489753 -0.175008 
-0.212352 0.00595552 -0.1754 -0.201816 0.00668603 -0.174944 -0.179396 0.00517643 -0.17438 
-0.144123 0.00450335 -0.174312 -0.131446 0.00528011 -0.173186 -0.191232 0.00958737 -0.174637 
-0.166776 0.0050782 -0.167066 -0.223096 0.0044484 -0.16723 -0.209459 0.00715588 -0.163943 
-0.196242 0.00456114 -0.166793 -0.185867 0.00732482 -0.166445 -0.176439 0.00461534 -0.164472 
-0.1391 0.00947321 -0.167281 -0.216588 0.0129857 -0.169363 -0.164771 0.0150418 -0.168521 
-0.149422 0.0110624 -0.168972 -0.131668 0.00474158 -0.161825 -0.233261 0.00460404 -0.163314 
-0.190542 0.00740216 -0.15761 -0.164064 0.00798959 -0.157749 -0.153456 0.00484394 -0.162218 
-0.141904 0.00457134 -0.159087 -0.244833 0.0109 -0.163832 -0.227876 0.0140887 -0.160663 
-0.217306 0.0105169 -0.15864 -0.200083 0.0110563 -0.159324 -0.227322 0.00757659 -0.152475 
-0.177214 0.00622929 -0.15459 -0.237008 0.0100536 -0.155729 -0.148074 0.0102301 -0.153578 
-0.135239 0.0095036 -0.152764 -0.142084 0.00457436 -0.147365 -0.244999 0.0056596 -0.15148 
-0.235763 0.00454742 -0.146709 -0.211335 0.00452835 -0.147448 -0.199151 0.00456862 -0.150818 
-0.184026 0.00461583 -0.147458 -0.168699 0.00602358 -0.147041 -0.158016 0.00451205 -0.14847 
-0.221124 0.0134008 -0.147101 -0.244553 0.00447108 -0.141446 -0.226941 0.00525171 -0.142023 
-0.189422 0.00455059 -0.139066 -0.132192 0.00451011 -0.143558 -0.20428 0.011241 -0.14538 
-0.194957 0.0125027 -0.142169 -0.176725 0.01 -0.140663 -0.163292 0.0141326 -0.14437 
-0.153862 0.0114032 -0.141827 -0.144355 0.0145464 -0.144374 -0.158953 0.00467029 -0.13593 
-0.14736 0.00493043 -0.13722 -0.236453 0.00661644 -0.135357 -0.220955 0.0080519 -0.134422 
-0.137654 0.00461802 -0.134893 -0.211127 0.0122448 -0.138064 -0.201907 0.00946518 -0.135117 
-0.166665 0.0109966 -0.135191 -0.135593 0.0140491 -0.138843 -0.17499 0.00687516 -0.126822 
-0.245007 0.00848824 -0.130534 -0.211732 0.0085597 -0.128793 -0.183946 0.00996377 -0.132693 
-0.152522 0.0108201 -0.131009 -0.142081 0.0119816 -0.129583 -0.186542 0.00449149 -0.124821 
-0.240873 0.00461883 -0.122038 -0.229471 0.00450818 -0.123388 -0.196874 0.00475273 -0.126263 
-0.164857 0.00476767 -0.125753 -0.145796 0.00450881 -0.124107 -0.190843 0.013258 -0.122738 
-0.150552 0.0128738 -0.121424 -0.135842 0.00500026 -0.116645 -0.216134 0.00462663 -0.120728 
-0.156641 0.00454076 -0.119062 -0.232312 0.0140308 -0.11495 -0.207571 0.00999669 -0.116325 
-0.173292 0.00963835 -0.116697 -0.140287 0.0137405 -0.119924 -0.188546 0.00484481 -0.114709 
-0.199382 0.0046758 -0.114543 -0.1641 0.00854157 -0.112579 -0.147834 0.00459787 -0.114221 
-0.183385 0.0136232 -0.113853 -0.153164 0.0114198 -0.109248 -0.189336 0.00610858 -0.10435 
-0.177554 0.00666406 -0.105506 -0.144518 0.004566 -0.104798 -0.237641 0.0131773 -0.106426 
-0.227929 0.0112956 -0.104728 -0.218251 0.0141969 -0.105623 -0.206242 0.0110487 -0.106472 
-0.16068 0.00842449 -0.103168 -0.133546 0.0119837 -0.105686 -0.198369 0.00578737 -0.0996002 
-0.151756 0.00445462 -0.0975938 -0.132749 0.00477719 -0.0975294 -0.244957 0.00902069 -0.0990698 
-0.180837 0.0133985 -0.0986913 -0.169532 0.012153 -0.0995014 -0.141822 0.012324 -0.0990251 
-0.234979 0.00512454 -0.0967193 -0.208329 0.00486752 -0.0971891 -0.178989 0.0044963 -0.0946139 
-0.217774 0.00941385 -0.0959189 -0.193397 0.0111569 -0.0926343 -0.161386 0.0110336 -0.0935482 
-0.150913 0.0126624 -0.0917199 -0.225693 0.00548225 -0.0906795 -0.215107 0.00461652 -0.0867082 
-0.198324 0.00474447 -0.0866123 -0.186293 0.00443472 -0.0873721 -0.169944 0.00666832 -0.0906348 
-0.141545 0.00458826 -0.0926021 -0.24504 0.00983815 -0.0890934 -0.206744 0.0128549 -0.0894801 
-0.177971 0.0107146 -0.0857973 -0.139845 0.00462377 -0.0814717 -0.237926 0.00472969 -0.0843386 
-0.222925 0.0045353 -0.080464 -0.160505 0.00538479 -0.0808557 -0.150467 0.00467322 -0.0818488 
-0.207216 0.00965082 -0.0800528 -0.193604 0.0117905 -0.0795092 -0.168316 0.01296 -0.0827962 
-0.144213 0.0132563 -0.0842946 -0.245001 0.00470256 -0.0762101 -0.231766 0.00481003 -0.0755585 
-0.199638 0.00456399 -0.0759422 -0.183807 0.0126062 -0.0779373 -0.174411 0.0112293 -0.0749445 
-0.138178 0.0121159 -0.0747778 -0.221479 0.0044752 -0.0678998 -0.188884 0.00472371 -0.0717044 
-0.179465 0.00467403 -0.0678479 -0.163496 0.00461329 -0.0674603 -0.138787 0.00458064 -0.0675082 
-0.212892 0.00853192 -0.0708844 -0.196454 0.01183 -0.0698934 -0.155173 0.00738676 -0.0722024 
-0.146991 0.0136261 -0.0674299 -0.198893 0.0045318 -0.0630822 -0.244575 0.00510503 -0.0661274 
-0.231875 0.00626233 -0.0653133 -0.206645 0.0110397 -0.0616944 -0.170474 0.0107297 -0.0638691 
-0.223057 0.00729669 -0.0572095 -0.21281 0.00444622 -0.0572874 -0.189393 0.00501368 -0.0596528 
-0.175625 0.0044817 -0.058112 -0.145564 0.0078349 -0.0591753 -0.237216 0.010959 -0.0575066 
-0.199131 0.00797675 -0.0536954 -0.15764 0.0117487 -0.0558128 -0.164482 0.00466851 -0.0538968 
-0.244419 0.00569934 -0.0526616 -0.231528 0.00448515 -0.0525822 -0.183328 0.00450988 -0.0503482 
-0.145495 0.0078294 -0.0491665 -0.189958 0.0117173 -0.0522549 -0.179384 0.0136624 -0.0510857 
-0.168749 0.0138334 -0.0505388 -0.222673 0.00463475 -0.0476283 -0.212405 0.00457742 -0.0470227 
-0.19292 0.00482432 -0.045237 -0.15776 0.0131599 -0.0451171 -0.131201 0.0112258 -0.0429388 
-0.244202 0.00506513 -0.0404393 -0.228974 0.00468839 -0.0398144 -0.21483 0.00488166 -0.0371206 
-0.202653 0.00461335 -0.0367458 -0.166777 0.0050201 -0.0425447 -0.180092 0.007996 -0.0402399 
-0.171584 0.0140371 -0.0407547 -0.148148 0.0136098 -0.0407267 -0.172836 0.00457418 -0.0341599 
-0.222849 0.00512875 -0.031116 -0.190089 0.0050493 -0.0354987 -0.141456 0.00644239 -0.0349755 
-0.219234 0.0143771 -0.0018961 -0.232277 0.0124227 -0.0343258 -0.162824 0.0148344 -0.0355924 
-0.156317 0.00806672 -0.0310895 -0.20865 0.00503965 -0.028571 -0.198812 0.00652668 -0.0275497 
-0.175541 0.00727789 -0.0245206 -0.213742 0.0132999 -0.031364 -0.184762 0.0131985 -0.0258689 
-0.166563 0.010744 -0.0272539 -0.134377 0.00818693 -0.0273521 -0.232028 0.00448711 -0.0224977 
-0.190318 0.00520079 -0.0220469 -0.241369 0.00596138 -0.019304 -0.219028 0.00471562 -0.0216096 
-0.157351 0.0047034 -0.0206402 -0.139192 0.00658793 -0.0187214 -0.226629 0.0127903 -0.0214542 
-0.197075 0.0129283 -0.0200676 -0.159106 0.014483 -0.0216858 -0.148656 0.00977813 -0.0195424 
-0.131696 0.00478546 -0.0123161 -0.205201 0.00445434 -0.0182279 -0.154341 0.00597702 -0.0111101 
-0.217309 0.0118305 -0.0145751 -0.180329 0.00923353 -0.0157601 -0.167952 0.0130661 -0.0172266 
-0.239528 0.00510007 -0.00955229 -0.22837 0.00500632 -0.0114694 -0.184135 0.0066724 -0.00685725 
-0.141024 0.00628833 -0.00823485 -0.21338 0.00746771 -0.00645118 -0.195599 0.00938088 -0.0108079 
-0.169112 0.0104595 -0.00702521 -0.175994 0.00491006 -0.000675595 -0.202566 0.00469217 -0.00511323 
-0.158891 0.00526449 -0.00180294 -0.1309 0.0048296 -0.00235047 -0.236819 0.0109076 -0.00176948 
[...]
POINT_DATA 4217
FIELD FieldData 3
id 1 4217 int
3492 3065 2215 1792 871 99 7 4066 96 
5 1003 3473 1750 484 3551 525 2636 3034 
3472 1779 2638 1317 3988 3180 1786 445 2693 
2597 2184 3898 919 3038 876 596 4065 3926 
3063 586 1337 3942 3483 3024 3631 1797 3543 
2218 12 1366 909 1757 1483 917 475 3927 
1325 450 62 3484 451 3056 1313 492 3761 
1800 2217 2210 177 1344 3055 3057 154 489 
531 3187 2185 880 3053 1761 8 3937 1321 
4047 464 3070 3074 1842 3946 16 486 878 
15 910 1420 3471 465 1353 4030 2207 606 
1758 1350 3545 3059 3067 2625 2736 906 1837 
2263 36 2641 925 904 2277 546 3128 37 
2601 911 1778 1791 1031 3925 4034 1906 3938 
912 2629 3177 2746 1363 2622 2177 54 10 
1032 488 2212 3461 921 1762 2632 2631 2200 
1923 2256 1375 3163 4050 907 1915 1310 59 
1445 3504 2634 2606 6 2621 3465 2644 1793 
2312 2305 3068 3896 2220 1801 485 3051 1322 
1044 3948 602 444 2602 2195 1756 1 3893 
1781 3511 2201 877 3603 2183 2764 2341 1357 
2211 2598 3951 1788 52 3630 1358 2732 900 
3508 1924 2334 2314 2755 1849 3894 510 2196 
996 1838 1751 3544 3506 2180 961 2646 1753 
1911 1790 3532 46 3182 55 3049 3196 3195 
2328 3459 3491 74 1352 3115 1619 3030 1339 
1340 3932 1912 1351 1416 2756 875 3992 3982 
3076 1900 594 3028 1898 452 3542 4 9 
3026 3905 2295 1346 1408 3899 2223 3467 483 
50 1347 2645 493 2699 182 3464 1361 38 
2698 2620 2643 2648 220 869 3078 490 1512 
923 41 446 2642 498 3032 883 914 3903 
3923 1401 3940 1333 3919 3044 873 110 2604 
1759 3994 3643 151 467 1365 2652 2664 2236 
933 2679 2353 2299 3033 1371 902 2336 3054 
1908 3995 476 1316 1904 1774 3079 2198 1787 
1921 2325 3947 1510 480 1777 3022 3943 3158 
3620 2219 63 966 1795 2379 4053 3025 468 
3050 1341 1320 481 3215 890 516 3635 1051 
77 2 218 548 3104 1393 3236 512 1054 
1470 3041 3928 2723 3493 3202 2626 51 1947 
3148 3971 3561 30 23 2670 4026 1443 953 
3965 2658 3480 11 625 185 2650 3957 2617 
206 2204 3917 1938 2342 3146 42 3145 211 
499 209 1328 620 896 505 3968 4013 91 
3520 17 1397 3918 3579 3097 3537 1381 2225 
1069 3052 3093 2661 33 4104 470 92 1776 
2239 2374 1878 2611 2248 3969 34 2637 43 
2363 643 938 4094 86 3645 3512 1785 1767 
3955 18 2676 3973 3952 4106 2235 886 2226 
3907 3513 2383 1376 463 3099 2654 2669 948 
1807 1087 2722 1367 3087 66 25 3981 1822 
1820 3970 2677 1501 561 1809 2253 2229 501 
3039 3912 495 2240 2244 892 3518 2233 1823 
628 3101 3110 2665 2241 3474 1370 1441 20 
2242 929 2234 1378 4091 64 3666 944 2609 
126 3527 3963 1336 1392 3475 2237 1862 520 
571 509 1816 3479 1382 29 3533 1811 3135 
2614 1764 3517 3098 1389 656 984 952 2724 
3657 4017 954 930 559 1334 2191 1963 2666 
1377 2768 3153 1380 3526 3111 884 518 1500 
1527 3568 2281 1060 2230 2186 1514 1429 1962 
1511 1871 891 3103 27 3523 1821 514 3528 
128 2189 567 3525 1817 932 1928 1772 2193 
3964 893 894 3476 1520 1770 1815 3090 2651 
3911 2707 1423 3915 72 28 3046 1395 3960 
934 4097 3920 1808 3092 2613 2809 1766 3953 
3921 3578 2227 199 3972 990 3648 69 3083 
85 3569 75 1071 1335 457 1329 2608 3916 
1372 638 2252 3966 3535 76 216 3913 2232 
3980 3538 3516 2673 227 4111 1499 940 1374 
3515 2378 927 2660 3230 887 1516 225 3536 
3141 2190 956 1433 1078 2672 931 3228 1331 
459 558 947 456 93 1080 449 217 1830 
1810 458 1769 2783 4009 3534 1833 1373 2769 
3930 169 1803 608 2208 1755 4033 1400 1783 
3494 3502 2209 142 2655 1477 1356 879 3489 
2178 3495 453 1354 1014 922 2182 3908 474 
3460 2337 3922 3486 2333 3029 471 1345 2640 
3496 1015 1752 3190 3950 2176 590 487 538 
1476 1794 1852 454 462 2628 2659 3466 3624 
1846 162 2202 47 3897 2633 2216 1348 535 
3061 2627 3975 576 3112 874 3485 4004 868 
53 58 2199 3077 2607 1467 3902 40 3487 
1312 901 3031 1798 898 1406 881 1362 1775 
3469 3931 1338 2649 1796 926 1413 2694 466 
3037 1349 2221 3503 3071 913 915 491 2752 
3482 1022 2623 1342 1355 1856 1417 2600 905 
1010 181 448 3 1883 49 3892 634 899 
45 3935 2639 889 1343 581 4082 3924 1019 
1784 35 3086 2181 2205 872 3036 3510 3944 
1360 1950 3611 3047 1411 3108 2599 176 3189 
3106 2309 3147 1311 473 3521 1479 3120 67 
951 3929 1865 2624 3470 39 3035 2635 1813 
2251 500 89 1318 3936 2203 2179 2758 1396 
1359 3958 3522 3962 4073 1330 935 3229 939 
3069 945 4071 2804 519 1528 3570 882 496 
2194 3978 2349 3914 190 2656 3213 4080 1475 
1763 3904 3064 3949 3094 511 653 60 1826 
4083 3477 2250 515 21 2192 3671 508 523 
2243 2653 2280 1394 916 187 4076 84 88 
4107 3085 1061 1951 1812 1384 937 3088 2615 
3979 3081 71 224 215 950 888 194 2663 
629 3530 3043 4024 2612 513 461 3144 3524 
3107 1827 2254 3048 955 2228 942 2291 2708 
3961 1326 3082 460 3910 193 1828 1819 2188 
1937 1386 2678 3644 2610 32 991 1934 3478 
4074 4084 521 3091 1390 2657 95 2224 507 
1771 68 1824 1879 3100 24 506 3959 3109 
219 3967 3539 1327 3080 2293 1422 2668 1874 
1385 1062 3540 3708 3976 3481 2231 494 3045 
2674 3531 90 79 895 1387 2238 3529 1768 
1391 1324 604 4000 579 3599 3164 2271 13 
2464 1595 4039 3627 447 2340 1854 2042 469 
3604 158 1009 3183 607 1026 4064 2762 482 
3598 1023 1035 2466 4158 155 1841 152 1922 
1403 4001 1028 959 3983 3616 2754 1448 2329 
1016 1552 2451 4060 529 2738 3622 144 1754 
3891 2749 2301 2462 1040 2315 2313 3628 2687 
4058 3552 1882 1749 573 2270 1789 2267 2603 
183 306 1038 1410 103 2324 179 978 2757 
2259 170 1903 2310 1109 3729 2730 1027 962 
1480 112 3113 2331 3197 1890 973 1037 4173 
3462 3171 3075 3623 245 3133 163 1896 968 
740 1446 977 3556 2327 2275 1782 2206 178 
156 2697 1844 1011 3173 3201 610 3939 3602 
3129 2258 3614 2681 1418 3996 2753 600 612 
2759 1414 598 3132 4003 3125 1888 4190 1532 
908 3554 578 3122 957 1850 2761 3596 1909 
3592 2733 3302 592 1853 3131 1858 4067 4038 
2696 145 1452 1018 572 114 172 1030 530 
2320 2692 4194 2803 903 2690 1897 1988 167 
575 3181 1902 3618 1024 1968 1041 2272 2307 
545 3174 3159 675 969 3127 3121 295 2734 
605 3027 603 2306 101 1765 2725 3130 3558 
4117 1899 541 3220 532 2213 3590 2274 1851 
924 3193 1409 3990 116 4172 346 1482 587 
3709 1043 599 1857 1058 3168 2691 1430 2890 
2889 2766 1905 3625 4061 542 555 4051 3595 
2771 584 1867 613 3170 3654 3984 652 1039 
1637 1332 1885 2351 1843 4062 1029 1117 3160 
1036 2308 4042 3559 2260 1451 1920 4045 1471 
1004 1884 2009 1085 3612 1017 553 3613 1399 
2332 1450 577 1453 2367 3690 3607 2742 2822 
3629 3114 3308 504 3205 1437 180 2688 963 
1444 4046 4029 337 22 3058 198 2041 3167 
1454 533 1005 184 3062 1917 1405 105 3733 
4108 147 3688 1802 4055 1449 44 618 3794 
2268 623 2763 4078 3250 102 2276 639 1834 
192 2605 3300 975 70 3574 4006 4087 2991 
1887 48 1486 2197 574 585 4037 3560 1907 
1464 477 3985 1025 3154 597 3116 3987 2685 
109 1913 4031 2695 870 3301 4069 4043 3172 
1379 3563 213 1419 3258 4205 3095 885 1957 
761 615 3209 3217 2292 3192 1526 1459 2806 
3175 1048 1407 2667 1428 2709 1901 1053 3188 
1914 222 2366 4090 3212 1864 3672 630 980 
1932 1654 987 965 327 3105 133 4198 3364 
4015 3649 2290 2630 3673 195 3241 4132 2415 
1935 315 3716 3650 1119 1424 2382 3235 123 
2775 3207 1425 4223 3222 1659 1141 636 136 
635 3040 1836 1179 3206 2380 2278 3333 342 
2368 1067 4020 4025 4150 3208 1926 1868 2294 
1046 565 120 2481 2507 4008 3138 3711 551 
570 609 2781 3137 642 3143 2713 4139 2776 
2717 3771 1805 208 1131 646 121 1942 3703 
1804 1438 3637 2352 1198 1497 1945 1426 3234 
2485 1432 2792 1081 1047 78 563 321 1431 
983 3668 552 229 3096 941 2718 2247 3636 
3221 1383 2662 1435 200 3634 568 1505 3954 
3216 1990 1059 641 645 2801 1202 981 4086 
647 2245 3656 632 3781 3140 1434 1369 3139 
617 1063 1436 655 3646 1875 2791 2283 2807 
1955 2002 4088 207 3586 2772 616 649 1927 
455 778 2782 3149 3157 130 2249 1073 1492 
3519 1079 2358 989 3238 2935 2773 2785 1564 
1082 1866 1056 1949 1442 1872 2802 3576 1965 
1956 2348 1518 31 2086 997 2501 631 2284 
1863 1508 4102 1065 3204 2795 2712 627 2794 
352 1066 3670 3956 3669 1002 2505 3583 1513 
2841 1084 2778 2671 562 137 946 1960 3909 
1954 2705 4092 2714 648 139 3214 1509 1086 
1122 2285 3102 4027 556 4101 268 1961 3647 
566 3658 131 2907 1946 986 4215 1368 2790 
637 203 2800 522 4012 2386 550 4023 1439 
1877 3582 622 4095 4028 1869 197 1001 554 
127 698 3661 1049 2059 204 1522 1070 2711 
3084 3566 4143 1498 1493 2361 94 2779 3633 
4112 2937 2364 1076 1832 1933 3639 3573 2376 
2068 3231 2780 2788 998 159 3360 2740 2287 
4216 2703 2356 539 2728 1455 526 3166 601 
3933 1461 583 175 589 3557 4115 150 3608 
2397 2317 1012 2264 149 3119 2302 974 1458 
2760 4057 1910 3610 1839 308 1412 2680 3728 
3185 1918 1579 3118 3760 3184 2396 660 3547 
1894 4041 1460 57 714 1021 3606 2269 537 
970 2316 1150 4187 1402 2914 2403 106 2330 
3169 2311 3298 3509 281 3895 971 967 1462 
3233 4002 1463 918 588 1447 2257 3548 1845 
2040 3134 2686 1163 108 1100 3186 1013 4036 
117 118 528 1592 1314 3555 186 2387 670 
544 2700 1535 2647 1315 3997 1096 2821 1891 
2020 738 547 2266 2744 2861 3310 174 1484 
524 3124 98 543 3490 3626 3615 4068 472 
3609 1565 1886 2339 2265 173 3191 4171 3676 
1456 2255 2344 614 1760 1052 1472 2321 2398 
2343 3553 1861 196 3194 960 1799 2326 3463 
2682 2407 1617 168 3565 82 4035 593 2726 
1893 4007 2727 2702 1840 2084 1097 129 4049 
1006 3562 191 1415 976 4048 745 3218 3993 
2731 3281 157 3468 2322 3906 1995 1211 80 
1573 2786 1889 1515 3567 1941 654 1831 1495 
3801 1948 81 1210 1895 2354 4014 982 2286 
2282 4109 3662 2369 2922 3665 1504 143 122 
1943 1881 100 2355 4022 2050 3577 2706 1473 
1999 1558 3224 3784 3242 943 124 3791 2793 
125 3655 3203 1083 2261 1953 1517 4040 1991 
1057 3572 695 1488 2300 3632 4103 2719 3641 
2419 549 1925 3223 2939 140 228 3663 4018 
1502 1642 1506 2847 3587 694 2675 3585 2298 
205 221 2056 1494 1427 1814 83 4079 2425 
995 1064 2497 2913 2384 633 2784 2345 4081 
936 1870 3617 2777 3571 4010 4212 2933 1075 
214 4089 4011 2297 651 2704 1876 3575 3783 
1966 2720 3279 1074 135 3239 2357 1123 4100 
3642 569 502 113 189 3337 3653 2710 1525 
3136 4077 4085 3346 2296 2616 1000 2347 2799 
1572 626 4075 992 2074 2288 3589 202 1638 
3660 2359 2774 928 2370 994 3227 4213 3155 
3581 517 1959 560 619 1524 3588 3977 3240 
2279 644 1050 2246 3211 4098 2805 1491 1958 
3142 1825 2350 4110 65 2375 1930 3659 2808 
2187 640 201 138 621 19 3156 1940 134 
212 1944 2012 3316 3252 2824 244 3294 3746 
3303 3601 1465 1137 1584 3422 1582 97 1581 
2044 2273 3600 3721 1577 703 3262 4168 2875 
285 248 282 2810 2013 2767 3254 4164 2871 
61 160 711 4135 3292 705 104 2323 1986 
1110 4188 964 291 2037 3328 1855 3730 3266 
1973 2542 536 1835 2453 3319 240 3726 1169 
3679 247 3752 725 2862 367 3998 171 2873 
3323 2014 2303 357 2564 3749 4121 4192 2026 
1542 2872 3686 4130 2442 232 2408 3991 1007 
233 1610 2318 1398 2827 161 3322 1148 107 
3321 3330 1615 1588 3754 730 665 1093 2683 
663 3732 4197 812 527 2864 1919 1481 1688 
1892 611 1599 1547 784 2448 3176 2828 2473 
1548 3751 3304 2459 2894 1976 274 2036 1593 
1983 289 3165 3747 1982 273 3727 979 534 
1596 1531 720 3198 736 165 3745 3257 1094 
4126 2823 1168 3687 1158 2684 4182 972 2735 
2404 3326 241 595 3697 1469 2457 1222 733 
4169 3693 1585 3774 2468 2867 3546 1590 2262 
4181 280 1089 727 2435 4032 2888 2338 1536 
4054 3742 2741 3684 2452 305 1466 1474 1551 
1138 2092 299 2456 2394 2880 2015 2739 4129 
2405 3681 2866 2433 3692 3246 1173 1668 148 
580 713 3318 2440 1142 2990 3683 4183 279 
2987 2878 3621 2388 4167 1478 304 661 301 
1107 2860 314 3249 1146 3379 2874 4296 2445 
283 2304 3763 296 2022 2023 3232 1641 4056 
1088 2868 1616 1929 2829 2831 277 3593 4287 
2892 2855 722 385 2877 2813 1156 1538 1135 
239 3265 821 1587 4189 3723 2859 2811 3605 
2751 4159 1576 2437 307 1160 2447 164 1154 
4185 2444 2519 115 4127 4131 1601 3753 540 
2891 2389 4141 3418 2045 3200 3259 2817 4195 
4176 2905 716 231 4312 4184 1161 4145 4114 
2472 1157 2737 1133 404 2449 1205 265 2080 
1586 1457 1208 4243 1008 236 4218 2902 2834 
2938 2470 3759 255 2035 1609 2883 1544 2034 
243 1166 4177 3290 1711 246 4238 674 1602 
2812 1717 2729 3253 1105 4186 3162 3372 3619 
1167 3549 1608 777 723 1113 3278 1197 773 
2928 3772 2089 3828 146 3275 4193 2167 1143 
294 257 2098 3795 223 2748 1534 2798 2925 
2164 3331 1440 3685 4228 4320 2532 2319 1967 
2429 1974 3273 2899 259 2043 3151 331 319 
1126 2460 1068 278 4295 1657 2850 999 2360 
4206 1644 684 1188 3407 332 687 1916 1994 
1102 267 3451 4170 253 2054 2001 1603 2064 
1631 335 1095 4257 2916 750 4203 4152 1136 
4072 2917 3702 4138 2844 3707 3867 3245 688 
235 2503 4231 3640 1128 3836 1124 2003 2929 
329 2421 2049 1247 3719 3773 2420 774 3349 
1556 153 3277 2066 2289 4200 767 2865 256 
3362 769 4147 3889 3226 4221 839 2069 316 
1178 1132 1646 2428 2910 330 1651 2109 1939 
2173 3788 2418 762 3237 3352 2500 3698 1195 
1873 4236 2414 350 4202 4325 3370 1553 3354 
3714 343 1621 328 1212 1723 1677 340 3356 
765 770 1118 764 1574 266 1567 3274 4211 
2070 2482 210 1674 1203 2416 2051 2494 1077 
993 2908 748 2154 1190 4313 2067 270 2062 
4318 1302 2373 4137 2797 3710 4224 2513 3768 
1289 775 1201 1214 2901 2372 2846 1183 1185 
1193 1652 779 852 1620 2057 2789 317 1507 
345 318 2431 1523 2498 3371 322 4144 1639 
2488 2796 4199 2842 1560 4229 2509 1121 1628 
3447 2511 1055 1623 2510 2410 1490 3638 344 
3288 3796 2787 985 347 2912 692 3436 3369 
3785 3701 2478 1489 2078 2853 348 1120 1570 
4136 1496 3276 2000 4155 4217 624 3286 3720 
2061 763 3667 3361 1200 2103 4096 1992 3150 
2927 1626 2568 3779 1630 372 1648 3272 2371 
4093 1072 3704 3359 3225 3778 264 2055 4153 
3152 650 3350 132 1421 2595 1503 3332 759 
2085 2076 1655 2512 1181 3790 3764 2923 3457 
254 4226 1238 755 697 3651 1300 4233 828 
3423 3691 2006 2060 3821 326 3353 1159 3580 
2024 1977 756 3786 2058 689 1042 1045 3824 
1286 3334 3282 2455 1575 423 303 1196 4149 
1176 3341 250 4005 3413 386 1972 2432 2954 
3564 3986 1267 2884 1696 2818 3126 2124 1847 
2870 4196 1521 298 1034 309 166 2896 1578 
2814 4165 3161 3291 1140 729 1981 2524 2508 
3755 1103 1174 3740 1149 2819 2038 708 3306 
1099 3731 2689 2441 4070 2750 310 2033 2434 
662 1404 1604 3293 2745 3261 1978 2019 2007 
2765 3263 3677 668 2747 3989 3313 1108 669 
732 2895 3307 1468 2816 341 1969 287 1598 
734 704 3251 3178 3591 4162 710 2879 3594 
3312 2743 3846 4191 4122 3597 1589 286 4166 
2335 719 238 1537 3737 1539 3260 1605 731 
2701 1936 3255 4118 2886 814 3744 4120 2393 
3317 3756 4119 1530 2071 1731 1170 1485 666 
3329 111 2021 2028 739 2465 677 1090 293 
1583 1134 3736 3420 311 1162 3757 3248 3117 
3762 2093 3750 4174 3689 2454 2090 2487 4052 
3295 3296 3264 2461 4294 2471 188 249 381 
3838 1698 297 958 4105 2436 1971 396 1848 
2039 3324 3410 2876 2446 3758 2018 2467 1540 
3280 672 3682 1529 1975 3199 2458 4113 1632 
1245 3325 2881 726 1665 3694 3743 2088 251 
557 290 1114 3007 728 119 2480 2934 3449 
3287 3799 4063 2008 3652 3700 582 2087 3888 
3243 2770 2715 2479 1213 4059 699 1033 3219 
300 2046 4099 2903 680 2463 2930 2852 2882 
349 1563 1101 1194 2919 1571 2721 4234 2381 
712 1092 3340 781 760 3271 3256 2426 1192 
3584 1206 3343 1650 3336 3798 757 4161 2474 
3664 4230 2346 1487 772 2502 2904 691 2716 
690 3269 2079 4148 744 4156 1165 2362 683 
4146 1209 3999 4225 2833 1647 419 686 693 
4237 4227 2385 443 3338 2514 1653 3270 1998 
1566 3706 1562 2365 1649 2065 2837 3366 4157 
4019 320 2915 1859 3806 1627 696 3775 679 
3363 743 1568 4222 4016 355 226 2424 747 
3871 3713 3803 1112 2052 2158 2492 1129 1130 
2856 681 4220 4210 2918 1559 3823 2843 3393 
324 3283 758 4154 2427 3769 334 382 2900 
1656 1629 1297 1177 2926 862 2489 141 4151 
678 2506 3804 2377 1184 1115 1860 3365 3712 
1996 766 3882 1640 4204 1880 1215 1633 1636 
272 3819 2906 1199 1997 2053 333 988 1952 
3358 3267 564 3314 2099 3383 2968 3850 1661 
3809 2048 3841 275 1276 2977 4253 3412 4163 
2047 400 1989 3378 1265 2825 2122 2135 2898 
2543 230 2970 2983 4279 2144 3289 384 832 
4245 4283 3299 2031 3402 1673 2562 3839 2406 
2391 4277 4116 4178 1543 1546 2548 3843 3424 
276 1706 1152 237 364 2552 1985 3725 1266 
2011 831 2143 2126 2134 4274 2400 3403 395 
700 2942 2025 3315 388 706 2138 3735 4251 
2550 2556 2401 2858 4247 1269 3856 1224 2145 
791 815 737 3832 1255 4273 2561 2539 4276 
807 2563 829 3382 358 368 4299 1716 2972 
392 3855 1712 1218 4292 3842 3380 2137 1606 
2975 3860 1153 1226 1715 2140 1106 4275 398 
2527 830 4246 2973 3852 707 1262 4284 3695 
2553 2132 3400 1669 4293 2095 1611 1710 1257 
3734 408 4160 1550 833 3408 1155 1275 4255 
2121 3384 787 292 724 1594 1220 1689 2943 
2966 2439 4244 1227 1693 827 1144 2974 3375 
1707 1258 2521 1228 671 1248 2952 2125 4297 
3851 3813 788 1549 2390 782 2559 2951 1278 
356 2893 1145 2887 2546 2438 4302 702 387 
2469 1533 2863 2537 3840 399 4124 391 2520 
3327 2032 2946 3675 3858 390 3807 715 313 
2978 2531 2118 389 4285 2136 3845 1663 1098 
3018 2129 3812 2010 361 3865 2120 3416 3415 
1260 2820 1175 2940 2526 2515 1091 3417 2941 
1664 4298 1249 2096 806 2557 2981 1720 4301 
2152 4280 4288 717 2965 3368 3847 2826 1701 
2982 365 2985 3866 3857 369 1225 3458 2815 
4286 1223 2956 3426 785 1708 797 1691 3674 
3724 2986 3848 664 2558 2114 783 2832 1545 
809 795 4328 1283 2139 2027 3837 2107 1699 
4242 1264 2869 1709 1251 2097 820 3428 2897 
1714 2949 1250 410 1670 2964 3395 823 3414 
3680 2169 438 3320 1704 4290 3355 657 817 
1259 288 4133 1253 1718 3766 2969 1217 3406 
1613 1597 2128 3678 3834 3859 409 1671 2830 
4291 813 825 2565 1271 4125 1104 1685 2984 
2104 3005 2522 3373 789 2016 2995 3399 1274 
362 3875 741 1666 866 2994 360 3884 1643 
2958 3021 1561 2921 2168 2157 855 1303 1305 
1237 1622 3385 1557 3456 4269 840 2100 837 
2161 2911 3805 1233 1681 375 2549 4263 1993 
2160 3820 4272 1683 2413 1741 4331 1739 431 
4317 261 4044 1555 1740 383 3890 2909 2976 
427 2101 3268 1240 3870 1207 1127 2165 2587 
865 2577 3699 3016 415 242 2504 3717 4259 
1230 3437 4232 262 1732 1236 4219 4326 2499 
847 804 2490 422 3345 1293 2395 2838 354 
3800 4306 1295 1285 2588 3797 3439 2491 3787 
3792 1182 1180 794 2961 4201 3715 2484 413 
374 2148 1569 845 3446 768 2920 1282 2579 
1679 776 3452 2108 3444 380 442 370 3864 
1675 4316 323 3429 1125 3020 1234 3015 4323 
4332 434 1624 1290 271 749 3770 377 430 
2959 3386 3818 1743 2572 2105 260 2486 2422 
263 2496 3008 421 1294 846 379 3780 1116 
2172 2533 4319 2111 1306 2585 2423 414 3802 
2170 1722 353 3438 1614 2580 3877 1635 685 
3705 3883 4207 2417 4267 1186 1298 3010 2569 
2146 3776 1733 4303 3887 2535 3822 3878 4021 
2576 771 3453 1239 2150 4209 3433 1727 1737 
2584 2083 802 4329 3826 3718 2851 2411 1231 
258 746 1612 2102 4314 2840 1291 436 2848 
376 3442 3388 3868 2960 2594 2072 1284 433 
858 1736 2936 1748 3398 3876 437 3886 378 
3392 3003 2581 2567 2159 1111 801 3445 3434 
841 742 420 3019 1281 2554 800 1729 1299 
2571 2997 1232 2171 2153 2999 4260 3448 1734 
3872 418 3455 3880 3430 2110 3339 1189 2993 
851 3777 1308 1301 1686 3397 2081 2112 3012 
1744 4310 2586 752 2566 2583 336 1726 2477 
426 432 424 3861 2156 2955 2591 2845 849 
417 3817 2529 799 3002 1747 3765 2412 2839 
793 435 1738 401 2536 2141 2948 2988 2017 
2029 3409 3244 3739 1695 2950 1703 4179 842 
1660 1980 394 3829 3404 1277 1541 3854 1667 
659 810 2545 1256 2117 2030 3849 2945 2409 
2115 819 2979 2544 1219 407 3811 4254 826 
811 718 2541 4289 4250 2094 3844 2523 1705 
2123 1187 709 1172 3748 3374 1171 1268 3297 
838 848 816 1221 4128 3247 1690 2963 3377 
1600 1252 1261 2392 3810 338 3305 1591 786 
1697 2133 792 2547 4278 3722 2947 3376 796 
1270 1139 2131 4240 363 4134 1979 1243 4249 
2130 3309 411 234 302 2971 4261 1607 4281 
397 3311 1970 2931 1580 1700 1692 3381 1662 
822 1229 3441 3853 2989 2116 2443 2142 2967 
824 412 2399 2517 1272 1984 790 3405 3427 
3881 2402 1713 3833 4241 403 1263 2996 402 
1151 3835 1254 2127 780 3741 2980 721 3425 
406 3873 1672 405 3421 252 3738 2560 3808 
1702 1987 2944 3831 673 2450 284 3885 2885 
393 2175 1694 835 854 2518 359 4307 3432 
4308 1164 798 2528 1246 3443 440 269 864 
658 850 1204 4123 2953 2854 2149 2538 4324 
2106 2151 1678 3815 3347 808 3344 2483 2836 
3789 2992 3431 3357 1216 2155 325 859 1725 
3014 4270 1742 3348 4264 857 1241 4309 2530 
2005 3869 3335 701 2077 4327 2998 1554 3389 