# vtk DataFile Version 4.0
Generated by LIGGGHTS
ASCII
DATASET POLYDATA
POINTS 4287 float
-0.223105 0.00521042 -0.245001 -0.173487 0.00652345 -0.244822 -0.163661 0.00465574 -0.244961 
-0.147718 0.00965164 -0.245002 -0.137528 0.0100028 -0.244855 -0.21607 0.0143204 -0.13522 
-0.232313 0.00944312 -0.245007 -0.170955 0.0130363 -0.0651104 -0.190941 0.0106985 -0.24502 
-0.183173 0.00469567 -0.243166 -0.233793 0.00508197 -0.236138 -0.216036 0.00724268 -0.237194 
-0.153544 0.00664732 -0.236561 -0.168347 0.0139463 -0.23662 -0.13038 0.0136344 -0.234153 
-0.140398 0.00969477 -0.23504 -0.244995 0.0139089 -0.23439 -0.226746 0.0127378 -0.234312 
-0.205306 0.00490554 -0.236615 -0.183698 0.00997279 -0.234691 -0.171476 0.00476212 -0.234461 
-0.245006 0.00478827 -0.225118 -0.199736 0.00519577 -0.228194 -0.189365 0.00494912 -0.228253 
-0.180292 0.00928541 -0.22534 -0.235072 0.0047145 -0.226232 -0.220232 0.00542965 -0.227647 
-0.210434 0.00751377 -0.228426 -0.160565 0.00678822 -0.227784 -0.15066 0.00487593 -0.227078 
-0.135629 0.00872435 -0.225712 -0.170399 0.00796645 -0.224996 -0.142292 0.0046731 -0.218226 
-0.130802 0.00532179 -0.0226658 -0.163195 0.0118735 -0.219287 -0.155565 0.00479305 -0.218183 
-0.240803 0.00810454 -0.216261 -0.206424 0.00517411 -0.219545 -0.195102 0.00483716 -0.218316 
-0.186204 0.00476721 -0.213579 -0.176811 0.00490989 -0.217109 -0.229479 0.00558161 -0.217984 
-0.216732 0.0052212 -0.21827 -0.16478 0.00474305 -0.212334 -0.211429 0.00492635 -0.209106 
-0.196585 0.00949265 -0.208362 -0.14196 0.00486368 -0.207424 -0.131772 0.00492111 -0.208733 
-0.244466 0.0129176 -0.207743 -0.233559 0.0109495 -0.209762 -0.224597 0.00550579 -0.207891 
-0.149136 0.0119909 -0.208459 -0.135921 0.0132781 -0.212494 -0.231765 0.00489678 -0.200943 
-0.161392 0.00641955 -0.203096 -0.152091 0.00971727 -0.197667 -0.243506 0.00478477 -0.19809 
-0.13168 0.00490218 -0.190411 -0.181277 0.00472074 -0.203685 -0.217808 0.00508162 -0.199074 
-0.206114 0.00661622 -0.200806 -0.171106 0.00546175 -0.19946 -0.162191 0.00550699 -0.193196 
-0.192213 0.0123682 -0.19989 -0.171925 0.0129045 -0.155839 -0.14251 0.00544293 -0.193571 
-0.201539 0.00791921 -0.192015 -0.176764 0.00509599 -0.190123 -0.234786 0.00484098 -0.191398 
-0.224794 0.0046544 -0.191709 -0.218844 0.010455 -0.144131 -0.193625 0.00483251 -0.186801 
-0.209559 0.013707 -0.214468 -0.224083 0.00738443 -0.182098 -0.244958 0.0148171 -0.0191365 
-0.169071 0.00509261 -0.18359 -0.156059 0.00905397 -0.186092 -0.137595 0.0056244 -0.182405 
-0.244923 0.00866759 -0.186116 -0.24491 0.0144584 -0.0395472 -0.20692 0.0119622 -0.181868 
-0.244907 0.00474704 -0.176854 -0.23485 0.00471812 -0.180837 -0.194503 0.0127532 -0.18001 
-0.189566 0.00461301 -0.177142 -0.148196 0.0050035 -0.177061 -0.228315 0.00996686 -0.170387 
-0.215907 0.00926536 -0.176637 -0.152088 0.00864129 -0.166589 -0.239594 0.0105093 -0.17059 
-0.140333 0.0139092 -0.124484 -0.170114 0.00618749 -0.00850749 -0.19866 0.00484258 -0.172725 
-0.180118 0.00508155 -0.173331 -0.160918 0.00460045 -0.177434 -0.134948 0.00475173 -0.171804 
-0.245003 0.00477294 -0.164408 -0.162032 0.00460805 -0.165523 -0.221492 0.00512382 -0.165013 
-0.212456 0.00939359 -0.164789 -0.188747 0.00516193 -0.166967 -0.189011 0.0149142 -0.16929 
-0.142287 0.00877329 -0.163403 -0.229945 0.00471496 -0.159699 -0.237991 0.010586 -0.158851 
-0.203358 0.00535744 -0.163857 -0.174652 0.00485688 -0.162362 -0.133 0.00866862 -0.199552 
-0.194517 0.00578193 -0.158257 -0.180975 0.0119111 -0.150095 -0.16632 0.00465185 -0.155633 
-0.157779 0.0103173 -0.158577 -0.143417 0.0143935 -0.154343 -0.133585 0.0141109 -0.15187 
-0.222403 0.00490306 -0.151787 -0.21211 0.00541093 -0.154269 -0.138932 0.0139767 -0.172556 
-0.245023 0.0122469 -0.151959 -0.227004 0.00463867 -0.14281 -0.195516 0.0111796 -0.148151 
-0.16701 0.0118583 -0.144159 -0.156359 0.00509411 -0.150147 -0.232347 0.0078966 -0.150552 
-0.230637 0.0136061 -0.224953 -0.202815 0.01449 -0.156369 -0.211007 0.0141427 -0.0113251 
-0.236078 0.00865571 -0.141286 -0.187515 0.0139476 -0.14272 -0.176653 0.00501677 -0.137407 
-0.146861 0.0047457 -0.143326 -0.137407 0.00907603 -0.143278 -0.182145 0.0088728 -0.0669105 
-0.199665 0.013424 -0.138898 -0.245056 0.00473791 -0.139472 -0.22311 0.00474452 -0.133632 
-0.212892 0.00478337 -0.136048 -0.196676 0.00603094 -0.132223 -0.165099 0.011866 -0.133767 
-0.142541 0.0127272 -0.200789 -0.180722 0.0151601 -0.174912 -0.155381 0.0134469 -0.137811 
-0.232925 0.00479423 -0.13085 -0.186752 0.00925581 -0.133892 -0.154851 0.00513022 -0.131827 
-0.14464 0.00549529 -0.132741 -0.135202 0.0047604 -0.128931 -0.213091 0.00814935 -0.125866 
-0.161501 0.0131089 -0.123794 -0.244756 0.00769622 -0.125871 -0.186651 0.0139149 -0.031135 
-0.173648 0.0148905 -0.129573 -0.137404 0.014199 -0.190751 -0.203171 0.0072476 -0.12459 
-0.171569 0.0144094 -0.190297 -0.151401 0.0111529 -0.124402 -0.136208 0.0136459 -0.0916927 
-0.234852 0.00809247 -0.11566 -0.21182 0.00694202 -0.115853 -0.184744 0.0103375 -0.117383 
-0.175544 0.0115154 -0.113647 -0.165832 0.00972771 -0.115213 -0.143572 0.00481313 -0.121456 
-0.135809 0.00545523 -0.00683943 -0.224731 0.012505 -0.118477 -0.14621 0.0116624 -0.00823988 
-0.146161 0.0102866 -0.18528 -0.133906 0.00488245 -0.118547 -0.174635 0.0148059 -0.217753 
-0.227427 0.0101632 -0.109135 -0.200775 0.0122794 -0.115272 -0.156935 0.00755425 -0.108526 
-0.147896 0.00804992 -0.112916 -0.237194 0.0143461 -0.106248 -0.215986 0.0102624 -0.107135 
-0.204386 0.00613143 -0.103652 -0.194458 0.00474164 -0.111148 -0.140701 0.00648953 -0.104922 
-0.132345 0.00924329 -0.109648 -0.181092 0.010486 -0.105178 -0.17081 0.0125108 -0.104223 
-0.208118 0.0130645 -0.075041 -0.167703 0.0143882 -0.0799507 -0.225667 0.00610087 -0.0989114 
-0.214597 0.00505648 -0.0920309 -0.194223 0.00944237 -0.101277 -0.168497 0.00478418 -0.0964089 
-0.159502 0.0102638 -0.0977022 -0.147621 0.00912364 -0.0971038 -0.135832 0.00467403 -0.0959832 
-0.24451 0.00569595 -0.0912408 -0.18466 0.0105529 -0.095584 -0.235936 0.00872585 -0.0958119 
-0.204916 0.0102521 -0.0940357 -0.205249 0.00517306 -1.71434e-05 -0.165103 0.00803519 -0.0875804 
-0.146196 0.00554905 -0.0869688 -0.224006 0.00509829 -0.0874586 -0.216237 0.00626767 -0.00159107 
-0.133462 0.00585356 -0.0855264 -0.192693 0.00915873 -0.0871588 -0.174642 0.00460587 -0.0851136 
-0.155691 0.00906931 -0.083522 -0.138772 0.0059652 -0.0770699 -0.244445 0.00545189 -0.0805417 
-0.234468 0.00465492 -0.0850088 -0.215622 0.00495738 -0.0816472 -0.147414 0.00646487 -0.0721732 
-0.204312 0.00472132 -0.0829112 -0.195381 0.00480604 -0.0784878 -0.182524 0.00474883 -0.0774443 
-0.166544 0.0046416 -0.07829 -0.158286 0.007568 -0.0733282 -0.191919 0.0138022 -0.0755732 
-0.244778 0.00544903 -0.0700198 -0.230865 0.0119305 -0.0757019 -0.202729 0.0050254 -0.0716536 
-0.175635 0.0147503 -0.0739156 -0.172995 0.00490973 -0.0705009 -0.191577 0.0143446 -0.110688 
-0.244986 0.0103633 -0.0596805 -0.180462 0.0142982 -0.244951 -0.227541 0.0051009 -0.0684029 
-0.197408 0.00781567 -0.0635175 -0.163372 0.00479109 -0.0642755 -0.153403 0.00464772 -0.0644435 
-0.182997 0.0107356 -0.195608 -0.216188 0.0102495 -0.058467 -0.207054 0.00506683 -0.0624786 
-0.182337 0.00483246 -0.056814 -0.172805 0.00478195 -0.0598218 -0.14732 0.0076189 -0.0570977 
-0.236102 0.00462914 -0.00232813 -0.199977 0.0136433 -0.217964 -0.229385 0.014779 -0.200415 
-0.136316 0.00890909 -0.0628361 -0.237985 0.00842491 -0.0527419 -0.228366 0.0107226 -0.0565055 
-0.210446 0.00747351 -0.0501768 -0.197186 0.0047793 -0.0538175 -0.169603 0.00482912 -0.0500376 
-0.158282 0.00575013 -0.0557234 -0.215281 0.00531632 -0.0707462 -0.18984 0.0113388 -0.0556895 
-0.139931 0.00467073 -0.0510355 -0.130737 0.0065351 -0.054496 -0.232138 0.00736633 -0.0436605 
-0.221252 0.0096282 -0.0495555 -0.193635 0.00501391 -0.0435101 -0.179711 0.00460082 -0.0468547 
-0.161465 0.0111204 -0.0440112 -0.152033 0.00623585 -0.0471167 -0.244884 0.00462897 -0.0410793 
-0.209108 0.00795586 -0.145093 -0.224438 0.0135976 -0.214714 -0.132509 0.00986953 -0.0441759 
-0.21305 0.0139094 -0.040146 -0.222969 0.0134292 -0.0387978 -0.204354 0.00896925 -0.0411323 
-0.180708 0.00474416 -0.0362317 -0.169358 0.00496111 -0.0397573 -0.14271 0.00588395 -0.0415087 
-0.200482 0.0075682 -0.244976 -0.16933 0.00599495 -0.172268 -0.234487 0.00977804 -0.0341299 
-0.211882 0.00528177 -0.0312574 -0.200311 0.0046246 -0.0275763 -0.151824 0.0120142 -0.0342489 
-0.133282 0.00513368 -0.0351852 -0.243758 0.0135327 -0.0297134 -0.184622 0.00875879 -0.184745 
-0.190265 0.00472429 -0.0325994 -0.144827 0.0143144 -0.217563 -0.158065 0.0129016 -0.244406 
-0.169277 0.0105394 -0.0293813 -0.226006 0.012443 -0.0291675 -0.18104 0.00900932 -0.0243713 
-0.14269 0.013285 -0.0256053 -0.161136 0.00800597 -0.00368518 -0.190758 0.00479895 -0.0224662 
-0.155353 0.00533099 -0.0246113 -0.24483 0.00480349 -0.0203687 -0.214873 0.0101427 -0.021916 
-0.20387 0.00566511 -0.0183171 -0.175368 0.0104325 -0.0162656 -0.175572 0.0130411 -0.0544847 
-0.233766 0.00683422 -0.0231434 -0.224437 0.00811699 -0.0197549 -0.185357 0.00892725 -0.0142709 
-0.166287 0.00459041 -0.0187669 -0.155421 0.00977917 -0.0124369 -0.148322 0.0149345 -0.0174592 
-0.217084 0.0128452 -0.205846 -0.137241 0.0114561 -0.0150286 -0.237381 0.00600437 -0.0135879 
-0.226624 0.00500347 -0.0103614 -0.193715 0.00539786 -0.00977182 -0.17978 0.00803226 -0.0058108 
-0.244338 0.0118036 -0.00895517 -0.208906 0.00459005 -0.00976979 -0.2004 0.0138353 -0.234261 
-0.146375 0.0141327 -0.227436 -0.223725 0.0132462 -0.128405 -0.209297 0.013059 -0.0853161 
-0.174244 0.014186 -0.0907884 -0.22709 0.0137318 -0.138821 -0.168638 0.0135553 -0.205613 
-0.244928 0.0139263 -0.244993 -0.178732 0.014423 -0.204263 -0.158982 0.0143353 -0.177674 
-0.196992 0.0146899 -0.0214523 -0.185569 0.0148522 -0.218976 -0.143041 0.0148953 -0.0680343 
-0.241545 0.0147908 -0.0821327 -0.245004 0.0047786 0.00271841 -0.226218 0.005403 0.00184859 
-0.196029 0.00934394 0.00419306 -0.173811 0.00957812 0.00237621 -0.156422 0.00727106 0.00512519 
[...]
POINT_DATA 4287
FIELD FieldData 3
id 1 4287 int
1313 3483 3891 1792 2693 906 480 2183 3066 
469 2215 920 464 474 12 2271 5 14 
487 917 1366 1354 3950 453 475 3053 3927 
2640 482 538 3494 1325 2216 2213 7 3056 
3502 2217 3898 3922 2601 922 1783 2606 451 
1337 489 3988 54 897 1364 3946 1353 1761 
3077 477 2628 2603 1363 3055 3484 486 2256 
1757 491 3624 13 925 907 1752 2218 1420 
919 1350 2635 2607 492 531 1797 2604 3492 
39 871 3070 2632 1782 16 40 597 3465 
3609 218 47 3490 918 1320 3495 2197 3486 
36 3511 53 3059 2623 2625 3074 3471 454 
62 3925 2198 181 1846 1012 3926 3061 1915 
63 1310 2207 3545 2631 3035 879 1338 1371 
1762 1775 1348 3027 4047 1787 2220 46 910 
1345 1781 1339 3895 466 1756 2644 877 590 
614 1418 881 3472 3469 961 1884 1032 3896 
1321 1791 2328 898 3923 602 3057 2629 2641 
198 3938 1889 1413 576 3460 1759 1346 2602 
1416 1342 2646 2208 3900 1349 2764 1798 49 
3459 45 3078 2639 1406 913 58 3196 2636 
1361 3482 483 1898 1318 2184 3079 1316 3467 
3186 2698 2180 868 1844 467 3943 3028 2342 
1753 1795 35 905 1852 900 2211 1352 1479 
3992 2755 591 473 4004 2599 2199 1314 1005 
3487 1758 479 3932 1784 1904 3542 1319 911 
3159 3463 11 3982 1360 3112 3611 446 452 
3182 3062 2600 3050 3935 2326 3592 1905 3928 
3931 1341 599 1311 3940 3899 873 3892 2223 
2638 15 3032 490 51 3033 3058 3030 3473 
1340 3025 3187 1765 34 3905 869 3558 3508 
169 874 3951 3506 55 52 1347 3054 485 
510 1401 4049 445 2321 1351 2642 2605 44 
2205 3104 901 2681 915 3944 1849 1801 912 
1786 2176 3068 2626 1755 1924 3947 77 1776 
3108 2659 2664 2690 1386 940 209 3521 3919 
885 2238 953 1397 3962 3897 625 1085 2657 
2650 878 3958 74 4026 2637 3523 1836 634 
2655 30 1359 2236 1396 81 3464 2252 3229 
3088 1328 2617 498 4094 17 3202 2228 3477 
1811 938 4009 3635 3044 88 3102 3233 33 
449 2669 4103 3917 3973 882 3145 2804 1069 
2250 954 3936 3921 4082 4104 892 2225 2203 
3475 2253 215 941 1823 3141 1394 3968 187 
3541 1819 70 79 933 1813 2653 1827 3964 
1822 2235 2662 3571 3518 3094 3041 86 80 
1763 3570 3530 936 3526 3093 2661 3228 76 
3099 4106 886 2233 2663 1388 3979 3955 559 
496 2672 2363 1833 1381 2679 1771 84 91 
93 461 2791 2654 947 4024 4017 1831 2244 
1373 3479 3914 2615 3110 2242 1828 1862 3203 
1807 2633 643 1384 3474 463 1376 66 2665 
515 3103 1826 3524 2241 495 1063 2619 1370 
1808 27 1334 1336 3916 3981 937 514 3478 
2188 3539 2783 1378 3039 1383 1424 4091 2651 
929 78 2618 518 456 1830 2186 3952 3960 
3083 1377 3043 216 3098 2769 3533 2193 2610 
1764 25 2768 500 32 956 895 2231 95 
2612 1959 558 893 3091 3045 949 1821 3213 
2678 2190 950 1817 3142 1815 894 3090 1816 
1391 1518 1809 3967 458 1773 3089 2243 1874 
3097 2614 3966 3911 3959 517 3540 4097 71 
1766 1930 457 506 1335 3084 3976 193 934 
945 497 932 2675 567 85 1814 1076 94 
2187 3528 3953 1387 507 1810 3085 1516 28 
3538 927 942 1062 68 2608 1087 3529 3476 
19 2248 513 72 3092 3515 1499 3980 509 
1372 3047 1326 2379 3907 990 2192 1876 3912 
3957 3972 3527 508 1429 1331 930 206 3107 
884 3480 891 516 3105 1895 1332 20 3101 
3906 3525 931 3975 1368 992 887 3894 2178 
2598 3466 2181 2620 3893 3034 1477 484 870 
3063 3933 2209 67 3024 2597 3930 2210 1749 
2314 3468 1774 3544 99 3491 2756 3489 1355 
3497 1403 1312 3461 3038 3493 3065 1800 3029 
2753 606 1317 2353 2202 42 3051 142 2201 
2200 2182 4 476 22 1794 4034 481 2195 
3037 880 2624 2214 1778 2336 488 1323 596 
1375 2634 471 444 3462 586 38 1467 3509 
2177 1358 2212 3052 3607 1322 1473 2622 1343 
3929 876 2222 1796 2649 3939 902 2630 1789 
2185 1837 2643 3049 1443 177 1751 1044 594 
448 3937 3504 3941 921 3189 909 1357 37 
3945 10 3470 41 1411 1 1031 3076 3071 
1315 3630 1788 3485 3 3069 1309 2621 1856 
960 872 59 3026 970 2325 1362 3115 1777 
1408 3116 3060 1838 1365 2732 470 904 1019 
1834 2699 3036 1785 3904 1799 3903 2219 3503 
2196 3934 581 899 9 1793 96 450 3994 
2221 3498 8 3510 2627 546 468 2647 2645 
493 3543 3902 612 926 176 3120 3163 1779 
465 50 144 2676 889 1327 523 3064 3918 
64 2660 890 89 3924 3657 3532 2 60 
1053 916 2239 504 935 511 2349 2179 3643 
883 923 505 951 90 1802 4076 494 1367 
3520 3569 3949 2191 3971 939 1054 2667 2656 
2652 3965 2227 943 4087 512 2609 1820 1330 
3978 29 1767 1427 4080 189 1393 3095 1333 
3081 548 2288 948 3537 3517 2670 896 1501 
3512 1943 4083 2374 503 2611 1511 459 3516 
3522 3106 3969 3915 2299 3513 18 1060 21 
3086 3910 2247 3666 4111 3954 888 3963 24 
92 1382 2708 2232 3534 3961 1374 4089 136 
3087 944 501 984 2713 2251 1963 1829 520 
1392 1423 43 23 1812 2237 211 462 1329 
519 1805 2677 2280 2668 628 1385 217 3048 
1369 2613 3531 3970 2658 499 1824 2671 2230 
4074 2666 3082 3080 2234 2229 3111 460 1390 
2249 1389 1770 3109 2673 2246 2240 1059 2224 
1768 521 2254 3100 75 3046 3920 2674 1395 
87 2805 2356 1772 1051 1769 3031 522 126 
2226 69 2204 952 199 2189 1026 48 3126 
1455 3599 2317 3133 2759 1803 3620 4033 525 
158 166 1841 2316 1854 1461 1024 3631 1882 
3564 3627 1040 1344 3604 61 1023 2324 2683 
2012 2333 3619 978 171 3124 1750 3622 1011 
1035 1486 3184 3591 1404 2750 574 1028 2329 
1447 2403 2273 3075 3547 1410 601 4058 3190 
1016 3178 2889 2728 306 3180 3119 2340 1020 
112 274 3550 1402 2464 1903 2270 2331 3556 
2276 3554 103 2041 1037 1845 1445 295 1027 
914 117 963 1038 82 2736 1412 1899 2311 
3761 1919 346 535 2697 179 584 2264 447 
3616 2301 1468 2267 111 4066 3166 3606 2327 
3548 1896 600 4065 4039 4030 3174 4068 1460 
583 3171 1887 2733 4036 2687 1890 598 2341 
4050 2312 528 107 183 3610 588 4067 3728 
1399 1483 4037 959 4054 3987 3129 2265 156 
1971 971 3113 545 2757 2761 3625 589 4003 
957 1902 968 4053 3127 3165 2307 3181 1456 
1014 3555 2691 3997 524 4063 1030 2309 3134 
2320 2387 165 3169 575 2275 4043 2274 2269 
4052 1888 3615 4061 3199 530 1976 2263 1188 
2726 116 167 1034 105 1760 2696 2694 1041 
3121 595 2695 3593 150 2332 2339 1452 539 
2684 108 2746 157 2396 544 1482 3198 547 
170 115 2277 580 2648 2752 4038 4048 1036 
1029 1883 1913 4198 3993 1010 154 1018 966 
4045 1843 2741 1485 533 1923 1459 3173 4062 
98 175 1356 114 1840 159 1039 593 2258 
3605 1004 2734 2692 1006 969 2257 3170 3613 
3549 3608 1430 3995 3948 4029 976 4046 532 
3590 3562 577 1417 1444 3595 2688 3561 1324 
1637 3553 3193 1043 2255 3205 2206 4001 3594 
1472 2306 2758 184 3559 1058 542 2702 609 
3629 110 2334 472 3168 2295 3690 1141 1454 
2322 2344 2922 3160 1419 3665 2351 2731 3191 
3565 1914 3188 2343 965 1471 113 146 1948 
1453 1916 3983 553 1400 2740 1407 3192 4069 
4007 3560 608 178 145 3600 973 3551 180 
924 4041 639 1850 1476 2042 2305 3621 1891 
1835 3128 160 2408 1857 1886 3984 1858 3598 
3596 573 3552 172 1466 182 4115 578 1988 
1920 1446 2767 1013 1908 3162 3131 3557 3067 
3130 3985 57 2319 975 2778 2354 2507 654 
2771 1865 3227 618 569 1457 2368 653 4108 
4035 1440 118 4071 1475 1512 2742 122 3650 
1025 65 123 1001 1619 980 2706 4077 1048 
3158 120 3212 192 4088 1911 2503 3645 129 
190 4014 1379 4027 2370 1504 1194 1528 1938 
3194 3791 3235 2194 635 1878 2786 1437 3137 
3280 2362 185 630 3096 641 4011 3573 1074 
2704 3154 3206 4090 983 3217 620 2425 3230 
655 1070 1957 1990 315 3221 1951 2793 3218 
757 3148 4020 3574 3208 2376 130 1931 3673 
2245 3242 2352 2300 1084 2800 125 124 3587 
229 2369 1526 3649 616 2282 557 2724 1057 
1426 2806 1558 3646 2348 995 205 1505 2292 
210 3140 2703 3671 1925 1966 987 2916 4153 
570 4010 3223 3585 4081 2777 1804 3637 1868 
3773 2069 135 1941 997 200 551 562 2773 
1123 3656 651 3653 1859 3661 1438 2709 629 
993 2384 563 139 321 2293 3663 4028 1944 
1928 1494 1432 2720 2710 1945 633 2358 140 
1000 1879 2373 1064 3231 1523 647 981 2719 
2297 3662 1932 3716 4084 568 617 121 4096 
1380 3644 202 455 994 4199 1962 2347 564 
4092 1075 571 214 2785 3583 1436 3214 946 
2364 3568 1872 2357 1055 1077 3481 1520 204 
219 1086 1937 1498 1954 1965 1002 3576 1527 
1946 1880 4085 1073 645 2279 1953 1875 1995 
637 3536 1066 3586 556 1433 1514 1515 1490 
207 2809 227 3136 644 1496 1997 3143 225 
2386 3670 985 1071 1961 3225 2705 143 1870 
1079 4107 3909 626 1958 131 4102 4100 1489 
3651 2795 137 1441 3582 138 197 1869 998 
3204 1877 1049 132 1960 2794 1491 2501 1956 
3634 2714 1522 627 554 1493 3633 1509 4023 
3566 2779 928 3659 1422 3577 2383 31 1191 
3243 212 134 986 2378 4075 3778 1508 213 
3207 3578 3236 194 549 1866 2723 2722 4012 
1659 3639 615 1081 679 2284 648 1927 3185 
257 1573 2782 3152 649 2359 3153 1067 2792 
3147 1947 2802 3144 3575 2774 1131 2285 989 
2707 3209 1442 3913 962 1163 541 188 1894 
3179 1003 2259 1517 2266 974 529 4064 2760 
2302 1855 1842 526 2398 3164 162 3942 1465 
2754 1839 2861 585 3617 3215 1907 967 2315 
977 903 3623 607 3022 1448 2323 3161 1853 
2739 1918 1921 1009 2743 1450 2730 3612 106 
1398 636 1015 4031 979 2762 2738 3175 2080 
101 4171 3125 2822 281 604 3998 155 2686 
1480 3183 4057 1042 3172 4002 2462 4060 579 
2749 4000 1754 2451 3496 3996 1536 1579 572 
537 151 4056 1495 3201 161 587 1470 958 
3197 2727 2700 149 1897 1867 1451 2725 3760 
652 2744 163 3688 152 2272 1409 734 1484 
102 1405 4187 2268 2040 1449 2803 2308 1463 
3200 4172 2685 3692 4005 1900 540 1922 2701 
3246 4051 1022 1462 3177 603 908 1848 168 
4055 527 308 3603 2682 2310 3302 147 1851 
1478 6 222 2260 1117 2261 3195 972 1893 
1885 543 875 2337 1912 592 3618 109 613 
3167 1100 3628 1847 1917 1415 3990 3122 745 
2009 1906 3265 1521 2766 3614 1414 186 1464 
1901 2729 1892 1428 1502 623 4093 3908 2298 
2789 2367 2798 201 2287 1790 2801 224 1510 
4008 566 4040 1033 3146 761 220 4025 2350 
2345 4079 3654 1861 2808 3139 3241 1435 3220 
1196 4073 4109 3648 988 1078 100 2361 1565 
203 3138 2781 3157 550 4015 3579 133 195 
1871 3647 751 3668 2784 1506 1513 228 3584 
4078 1881 3040 1949 2296 3632 2366 2286 2717 
3672 2056 191 4112 631 621 4013 2716 982 
2291 3519 2807 127 2721 1500 565 1936 3641 
1487 221 632 3237 340 2355 2380 1431 1935 
3642 3364 3655 4006 1933 2780 1047 4098 3636 
3589 3535 3224 208 83 1873 1825 4110 2910 
3149 1211 560 1046 1061 1497 3581 4021 1942 
552 4042 1082 2616 2799 1955 3669 642 991 
996 3234 656 502 141 153 2718 3977 2294 
2790 3567 3240 1488 2505 3135 1065 4018 1524 
128 561 268 1080 4212 1492 3156 619 196 
2371 3219 1434 3238 2385 3211 3155 3956 955 
2278 1056 2372 2772 1832 2712 3658 640 3222 
1934 4230 638 2283 1926 3216 2290 1950 3316 
964 1552 1981 3292 310 674 1973 3755 2453 
244 3294 233 1588 4179 2313 4192 705 1604 
710 1147 1989 3723 291 668 1109 3597 2872 
1093 1613 610 248 1103 2745 247 2814 3601 
2397 667 2875 1135 1166 4180 2827 1088 3261 
2027 2459 536 2824 1581 703 2539 1610 3986 
1007 2887 1169 4173 4158 4197 3251 3118 1529 
2448 3314 3262 2303 3176 4125 1576 3291 3323 
611 2816 4162 2033 714 2441 720 675 4190 
2818 3687 2434 2400 2473 4166 1542 2472 2866 
3754 669 298 3322 3563 2819 3290 3304 2014 
1972 2973 534 665 4116 731 3721 1530 2859 
2405 1585 4129 3679 739 3315 4120 2894 232 
1138 4194 4117 2468 3742 286 297 3334 719 
4218 3423 1595 4169 3298 4122 4191 1474 1158 
289 243 1591 3312 2432 2821 2829 3757 677 
4189 238 2015 3313 3327 2879 1968 1593 4177 
3330 1598 2880 706 1149 725 1909 280 2465 
2888 2895 1151 2446 3301 1532 1578 3745 1589 
1162 2452 3309 4182 4196 3743 3751 3744 408 
1458 305 2878 1535 3681 2440 1590 3747 733 
740 293 273 732 1615 3758 2407 3683 2402 
2830 2390 1975 4059 2813 3694 1170 239 309 
672 2896 3303 2871 727 3693 246 713 661 
2874 2262 2330 716 3295 1983 2021 1008 2460 
2886 240 1551 2037 1096 4159 2811 4183 2388 
2044 4160 726 1154 1097 279 1105 1596 1156 
3682 2318 3311 2018 3307 2023 3325 4184 1984 
307 119 3250 1150 1090 736 3680 1143 3296 
2826 1161 1586 164 3248 2860 1970 2831 251 
3722 1607 338 3308 2890 2883 4127 2444 1098 
3691 722 4296 3300 2436 1146 1534 337 4119 
2045 2891 1539 4287 3763 1982 1969 1608 1164 
2817 2008 3324 2022 3260 2892 2897 2470 3759 
1101 300 236 296 3263 3753 265 278 715 
3264 3695 3259 2084 2005 3256 1657 3281 1167 
1654 2487 2043 1929 2039 4132 2442 2389 1173 
1481 3677 2680 2466 1538 4188 2456 3678 3675 
3319 1099 2467 3738 1584 249 2020 1599 1148 
1609 1267 3252 3726 4145 1021 1157 660 2564 
1977 1134 3626 1611 304 3731 659 4121 1605 
3132 235 2449 3310 1017 3232 711 301 4165 
97 223 2024 2854 3273 2925 3336 999 2064 
344 2393 582 3333 2065 2054 2413 2382 1197 
1632 2905 2079 2504 3351 3798 1991 259 691 
773 1092 2463 1136 1647 3764 3999 3707 2087 
2855 3278 4231 3788 332 1200 2914 3640 1113 
2049 319 3790 1193 3702 2903 4152 3794 2411 
2164 1643 3713 2852 2426 1213 3795 3331 1644 
687 1525 4228 555 1556 3267 3784 3275 342 
3353 253 1561 1563 2474 646 1992 2939 2416 
4238 2934 3797 2796 443 4138 318 758 765 
1068 695 3352 4146 2060 681 4147 2834 4216 
2508 3703 1119 339 1623 341 4150 327 689 
330 1192 3345 3770 323 776 744 1195 756 
1128 2901 2500 2839 2856 4095 3775 2930 2497 
2001 693 4156 1083 1562 2835 2842 1939 2776 
2420 3341 743 2935 2841 1206 2480 3698 1124 
3226 1994 762 2833 335 2917 1650 1567 2086 
3706 3271 2788 3783 3781 2509 781 1653 4224 
2423 2797 2414 3771 343 3701 3332 3720 4227 
2502 270 1656 3449 4086 331 3712 2498 2051 
1190 1651 3371 1620 764 682 2510 2913 3711 
4221 1214 847 2074 3239 4123 4236 2067 1129 
748 329 2937 1628 4206 4222 3799 3362 1568 
3360 690 2900 3369 1178 1122 3652 4210 2496 
2787 768 324 2429 352 3804 3660 334 3719 
775 3274 749 326 3283 3338 747 2489 3346 
1203 317 1645 2932 1863 1621 4151 1177 1182 
1215 4205 696 3708 1572 4235 2154 1184 2494 
2511 1860 2926 3769 328 3785 1112 1560 4207 
1121 2061 3879 1633 3705 2846 2853 2085 1629 
3819 1208 1132 678 2715 1952 694 2410 2492 
1503 4211 4019 1996 258 2375 1566 3704 2770 
4072 759 771 4155 2078 3337 3700 1181 2589 
1209 2906 1564 1559 2488 2053 2711 2478 1626 
2907 3664 3276 699 1635 2514 746 3365 2381 
4217 1630 2923 3388 1072 4143 3272 742 4229 
2775 3286 4226 1640 624 2082 336 1999 3803 
4136 1421 3361 1682 263 385 226 3801 333 
1176 2346 2052 698 4202 4215 1574 4137 3349 
712 4022 688 2927 255 1210 1179 2076 2431 
2068 1646 1201 4161 4203 2512 2003 3709 1139 
2763 1174 4126 1144 735 2735 2815 3255 299 
2884 2017 3368 1987 3768 4118 1583 2013 4175 
1469 282 3293 3746 2810 285 1140 1612 2335 
3733 3254 4070 245 729 311 3846 680 2765 
1582 3734 1548 2868 3725 730 3686 2435 3340 
3774 2870 1540 709 728 2038 1110 2862 3732 
4284 250 2885 1910 3244 2812 3991 4131 1531 
662 1592 2394 4130 1986 3989 738 4193 2019 
2036 4134 3729 2867 1533 3762 670 4032 2828 
1547 3328 737 2026 3730 3602 287 2873 2338 
2028 2954 3727 174 3247 3740 1979 1165 2876 
2938 3321 704 241 2007 3114 4167 3546 3257 
3756 2404 2454 1974 173 3318 663 3684 2823 
1107 3752 1089 1145 2304 1094 2877 3306 3117 
4181 1714 2457 3821 2445 2689 4168 2863 1641 
4176 1168 2820 252 707 3245 605 1616 2071 
283 3750 1133 4185 2748 1617 1104 724 1142 
671 3317 277 2433 3689 3676 4113 314 4141 
2010 821 3737 3258 290 2447 4164 2751 231 
4174 3674 2881 723 3413 2991 1160 2443 104 
2747 1108 148 2737 3697 4105 4044 1095 4149 
3282 345 1050 1102 1198 303 2427 3279 2919 
3828 777 2289 1115 3772 4170 3343 3342 3277 
1212 3151 1425 774 1289 1864 2882 2479 1571 
3287 2377 2360 1205 348 1636 1967 2535 355 
755 2850 2000 1202 4234 4225 2837 242 2911 
2088 266 3354 2847 2844 1185 1649 2838 3714 
2455 2418 697 3370 3765 2006 650 2484 1052 
316 2046 4139 1130 4239 3667 2050 3792 4213 
3356 3710 4237 254 322 767 4223 1655 1199 
3358 4016 2421 2477 753 3572 760 2055 2481 
347 3366 2929 3715 2281 2506 1045 752 350 
3335 684 3823 2002 3284 2428 2485 4233 4154 
1631 1603 3588 3786 2513 267 1638 2904 1114 
1575 2062 260 1439 3350 772 1940 4325 766 
3638 4318 2915 2083 2933 778 3871 622 2365 
1648 1634 264 3270 3359 4101 2908 3363 1120 
4144 272 372 3796 1507 1587 4099 2419 4148 
354 763 4271 1300 2832 325 3288 2865 2899 
1183 686 779 1627 3150 269 1159 4232 2918 
1126 2928 320 2059 2843 2845 3580 4200 1642 
2415 2424 4178 1661 401 2011 2552 2048 2857 
1667 2970 4253 2117 276 815 834 791 2976 
275 2898 4247 784 1706 4283 4300 4277 3424 
3383 1266 3404 391 367 4135 3735 3809 3289 
2143 4279 4274 359 2047 836 3842 700 2963 
3374 3443 1544 2138 3850 831 1220 2950 1546 
2128 3854 1550 2548 2543 3829 2516 1694 1268 
2391 2122 1255 2141 2123 3406 1137 1219 796 
368 2523 3382 1106 786 2983 788 4273 1696 
2542 3297 2979 1256 1227 2561 237 1594 2988 
2145 702 302 829 4292 1271 807 3859 811 
1978 1153 2545 400 4276 2526 2952 842 2134 
3253 2093 2944 389 1713 2547 3841 1712 3266 
826 313 1171 3839 812 1226 3833 388 3378 
1218 3844 4302 1600 1715 390 1693 2125 2521 
2524 406 3408 4249 825 284 2942 3384 2029 
3405 2392 816 2546 2130 1252 4246 1669 2946 
1671 1155 4244 412 2966 795 2439 4240 3852 
2471 2951 3381 3807 2137 1277 4297 4255 4281 
1689 2990 4299 3812 2091 407 1710 369 657 
782 356 2121 666 234 2030 2941 1270 4251 
2136 2962 658 2987 3847 787 824 4241 387 
790 1580 2140 3417 4289 2982 2131 4301 3724 
3416 4295 405 3831 409 1601 393 3837 827 
1702 806 1700 1672 1698 2531 404 717 4298 
2527 1699 1251 814 828 2893 809 1260 2469 
4294 2557 3853 1549 2032 4252 2559 1248 1264 
820 4124 2437 3808 1249 785 3376 835 3851 
1692 4278 1228 673 2869 2967 402 1091 410 
2980 288 721 2119 1670 3425 4280 2100 4195 
4243 1246 1263 1229 3003 2984 2989 838 4272 
2560 4288 817 3875 3418 2515 1250 2098 701 
2949 2985 1709 792 2587 2945 1262 1690 3843 
392 2544 1666 1543 2409 3415 411 3329 833 
3299 2825 1695 1691 1707 1716 4293 1254 4242 
4186 2099 1175 357 384 1602 2522 403 2858 
2563 2401 3736 2097 381 2948 1673 396 2450 
1597 2438 2996 3420 364 2864 2127 2986 2139 
2406 3856 2975 1272 3249 399 2953 1172 2974 
2968 2461 1705 1225 1665 813 2978 2167 1739 
3881 3848 1305 857 2155 1731 3426 864 2458 
2549 4307 4324 4263 375 4308 1274 3805 3355 
1622 1243 1678 1295 4312 797 1724 840 413 
1555 2107 2104 1259 4114 1303 3815 3389 428 
2124 2169 3789 1293 4264 837 2072 349 1681 
2483 2106 2994 1720 848 3391 854 3874 3890 
3348 2931 1236 2089 3021 3884 1683 865 3268 
4320 3699 2992 3458 804 2173 2572 3429 1233 
435 2151 1234 2995 793 4326 2998 3454 794 
850 2532 1732 860 380 1554 1728 3800 1993 
427 2573 2101 2158 1742 2016 2150 1677 2113 
4316 1286 374 2582 861 1680 2004 3014 1679 
3814 3822 1242 425 3882 685 2588 1304 1187 
262 3717 3001 4306 4266 1738 853 1241 1231 
3864 2066 867 3446 1216 2920 419 3787 1291 
3015 1285 692 415 2172 2063 430 2534 2584 
416 1674 2476 3887 2148 3385 1308 379 4305 
4327 3776 3438 3006 2924 2165 1748 4322 376 
801 4201 2430 4220 434 2575 2111 442 2146 
3005 769 436 803 1743 1723 2109 1287 4208 
2999 1747 4331 271 378 1296 3876 429 4313 
2592 1733 2851 2495 1298 3430 1282 852 2475 
437 4258 3339 2159 2153 2528 2073 1684 3394 
3444 1111 2571 2417 2961 2567 3398 2959 1652 
3869 1737 1730 851 856 4265 3387 3802 3455 
1727 371 2174 1207 422 2993 1721 3434 1299 
4204 3878 1186 3453 3010 3000 1719 3457 4209 
3433 3450 2593 3818 3013 1729 2160 3718 2594 
2568 1118 1279 3392 862 3817 1735 3816 2586 
4330 2081 2849 2936 2997 858 1676 1658 2057 
2591 2583 1281 3888 3269 3011 3012 417 2171 
2595 3870 2566 3007 683 2110 1726 800 3872 
418 1734 2529 1280 3782 849 3777 1189 432 
4268 2102 3379 1232 4290 420 1744 1283 4256 
2579 1570 3866 414 3448 2422 2070 1290 4286 
370 2162 845 2077 3825 3883 433 2412 802 
4328 1736 4303 2590 2114 1204 440 1244 2902 
819 3421 1275 1717 3412 3377 1985 3372 1660 
366 1704 2031 3380 1223 2135 2947 4254 3855 
2537 1245 2115 3739 4282 3409 1577 294 2553 
708 365 2541 3422 3832 3427 1541 2144 386 
2092 2562 3810 1152 2958 1276 3428 2399 2094 
2550 4128 2025 3845 3811 1663 1265 830 1221 
358 4163 3840 783 4245 3399 3402 2132 2126 
1606 2536 4250 2090 2118 810 3375 2556 3748 
3834 398 3749 718 1222 363 808 3403 2565 
3373 3806 832 3414 1697 292 1688 3347 822 
3849 2120 3865 3857 1980 2034 3326 2971 1258 
789 2133 3838 361 397 3860 1224 2525 664 
1537 4285 1257 3305 3858 1662 1545 1217 2977 
2540 360 2096 1703 1230 2969 1253 2519 1668 
1711 1708 2142 1701 1278 2558 2520 2551 3400 
1261 2518 3018 395 4248 4291 394 1269 2956 
3741 230 362 3813 2940 2972 2035 1664 2981 
4261 1718 2129 2517 2116 4275 4269 2095 2943 
3835 4133 823 3367 3397 2964 2149 2152 2105 