# vtk DataFile Version 4.0
Generated by LIGGGHTS
ASCII
DATASET POLYDATA
POINTS 4217 float
-0.225254 0.0071541 -0.244763 -0.210726 0.00686053 -0.24269 -0.228564 0.0147986 -0.0754041 
-0.185849 0.00692573 -0.244939 -0.175611 0.00458707 -0.244617 -0.16563 0.00537801 -0.244398 
-0.13923 0.00628935 -0.24479 -0.203738 0.0141425 -0.243387 -0.130785 0.00792273 -0.083578 
-0.235311 0.00904129 -0.239282 -0.201787 0.00595013 -0.237627 -0.148333 0.00848245 -0.241278 
-0.169885 0.00603578 -0.235287 -0.158479 0.00563364 -0.237383 -0.179142 0.0129584 -0.238531 
-0.200335 0.0143213 -0.0974143 -0.141079 0.014899 -0.23462 -0.243671 0.00572787 -0.232363 
-0.224703 0.00648731 -0.23295 -0.209839 0.00696095 -0.230238 -0.189683 0.00925854 -0.234976 
-0.179314 0.00726157 -0.229932 -0.135 0.00753298 -0.231108 -0.21635 0.0124645 -0.235963 
-0.198816 0.0121249 -0.229864 -0.22693 0.0149142 -0.200073 -0.161151 0.0103293 -0.227796 
-0.234059 0.00749539 -0.228967 -0.21874 0.00926081 -0.224631 -0.17011 0.00608121 -0.224137 
-0.144582 0.00584937 -0.228519 -0.229091 0.0148207 -0.223294 -0.20312 0.00243805 -0.222135 
-0.152519 0.010144 -0.222688 -0.130329 0.00987315 -0.00184336 -0.244958 0.00971102 -0.222435 
-0.235563 0.00853372 -0.219031 -0.211247 0.00550211 -0.21634 -0.187172 0.00828041 -0.223783 
-0.136775 0.00645141 -0.221305 -0.18501 0.0143138 -0.0894924 -0.17351 0.0136353 -0.218016 
-0.163548 0.0129859 -0.218381 -0.224444 0.00911809 -0.214483 -0.189837 0.00463455 -0.212229 
-0.180187 0.0067274 -0.215261 -0.167389 0.00458157 -0.214507 -0.146164 0.00635422 -0.21594 
-0.176064 0.0140734 -0.171568 -0.200712 0.00391209 -0.211463 -0.155973 0.00665274 -0.213374 
-0.21035 0.0052012 -0.206084 -0.244872 0.00786507 -0.208911 -0.244985 0.0136883 -0.00972725 
-0.138586 0.0119454 -0.212475 -0.229316 0.00616194 -0.205675 -0.219598 0.00929045 -0.203989 
-0.201703 0.00654687 -0.200743 -0.18151 0.00739799 -0.205372 -0.164274 0.00672592 -0.205122 
-0.154383 0.00524096 -0.203608 -0.144369 0.00687331 -0.205045 -0.133959 0.00993116 -0.203205 
-0.236297 0.013419 -0.204089 -0.192166 0.0088281 -0.203444 -0.161014 0.0148857 -0.124024 
-0.172261 0.0143568 -0.229812 -0.172922 0.00808487 -0.200286 -0.242248 0.00629528 -0.199173 
-0.232912 0.00671724 -0.195472 -0.161281 0.00683957 -0.195494 -0.147938 0.0082594 -0.193318 
-0.194506 0.0106958 -0.193919 -0.182837 0.00787559 -0.194836 -0.130619 0.0134342 -0.0331785 
-0.221148 0.00852714 -0.193603 -0.211261 0.00714409 -0.193215 -0.20218 0.00468195 -0.189756 
-0.189849 0.00490152 -0.187202 -0.136209 0.00799086 -0.191787 -0.169861 0.00986491 -0.19071 
-0.175861 0.0145759 -0.0319656 -0.226203 0.00865709 -0.184948 -0.234055 0.0142384 -0.188218 
-0.180208 0.00683404 -0.185091 -0.160548 0.00570725 -0.184957 -0.150515 0.0069202 -0.181858 
-0.244492 0.0106289 -0.190425 -0.217135 0.0139941 -0.185362 -0.236276 0.0141455 -0.0153487 
-0.197389 0.0115092 -0.18339 -0.243856 0.00884065 -0.180052 -0.223435 0.0116607 -0.175801 
-0.171281 0.00813803 -0.180308 -0.138182 0.0124705 -0.182865 -0.159956 0.00452995 -0.00101178 
-0.227104 0.0143127 -0.0556218 -0.233535 0.00679871 -0.175254 -0.160615 0.0100118 -0.175113 
-0.212082 0.00355566 -0.17542 -0.202117 0.00458458 -0.175479 -0.179661 0.00522822 -0.174872 
-0.144848 0.0080023 -0.173692 -0.13232 0.00868409 -0.173974 -0.192081 0.00848958 -0.175386 
-0.166265 0.011502 -0.167012 -0.223389 0.00619602 -0.167211 -0.208839 0.00484445 -0.164189 
-0.196275 0.00397369 -0.167333 -0.186655 0.00676716 -0.167076 -0.176281 0.0076866 -0.163659 
-0.140207 0.0130665 -0.166427 -0.215374 0.0125093 -0.169899 -0.154988 0.0141774 -0.198126 
-0.150041 0.0146336 -0.16828 -0.132633 0.00629386 -0.162166 -0.23286 0.00700045 -0.164062 
-0.190037 0.00537088 -0.157569 -0.163565 0.0100481 -0.156123 -0.154724 0.00885583 -0.16059 
-0.142206 0.00797931 -0.157506 -0.245 0.00931877 -0.162821 -0.226515 0.0145647 -0.159765 
-0.216757 0.00904683 -0.159605 -0.200174 0.010022 -0.160288 -0.227557 0.00511336 -0.15271 
-0.176923 0.00732943 -0.153412 -0.237444 0.0127995 -0.155967 -0.149976 0.0123719 -0.151779 
-0.134851 0.0141117 -0.15007 -0.142227 0.00794832 -0.146707 -0.244937 0.00499309 -0.152385 
-0.236136 0.00724694 -0.14673 -0.211695 0.00675598 -0.14909 -0.197905 0.00714808 -0.150828 
-0.185401 0.00789963 -0.147367 -0.168522 0.0035439 -0.147169 -0.157919 0.00712563 -0.148294 
-0.220587 0.0114643 -0.148266 -0.244394 0.00711466 -0.140983 -0.226956 0.004857 -0.142064 
-0.190463 0.00783874 -0.138757 -0.131719 0.00686882 -0.143761 -0.204537 0.0132343 -0.146472 
-0.242581 0.0144151 -0.244954 -0.177255 0.00920199 -0.141408 -0.16723 0.0145942 -0.14625 
-0.193138 0.0141594 -0.104701 -0.206461 0.0139945 -0.214168 -0.15737 0.00725396 -0.138354 
-0.146278 0.0104636 -0.137808 -0.235973 0.00454936 -0.135105 -0.221285 0.00642563 -0.133868 
-0.136506 0.00931294 -0.135293 -0.211617 0.0103288 -0.139764 -0.201667 0.006764 -0.135913 
-0.167725 0.0109705 -0.136035 -0.217703 0.0139836 -0.0818188 -0.17525 0.00485025 -0.12643 
-0.244969 0.00514842 -0.13046 -0.210529 0.0077022 -0.129713 -0.182578 0.0127008 -0.133057 
-0.152421 0.0149118 -0.131176 -0.214122 0.00324828 -0.00673994 -0.185555 0.00775713 -0.124313 
-0.239738 0.00736157 -0.120495 -0.229446 0.00849174 -0.122596 -0.198303 0.00870857 -0.126188 
-0.165004 0.00568962 -0.125726 -0.145223 0.00739826 -0.124751 -0.136406 0.0141866 -0.0889753 
-0.142208 0.00646349 -0.00705333 -0.135247 0.00980992 -0.115814 -0.21639 0.0077596 -0.120464 
-0.156073 0.006508 -0.118827 -0.232555 0.0149652 -0.114807 -0.207797 0.0113744 -0.11657 
-0.173158 0.00853742 -0.116214 -0.202936 0.0123809 -0.0457416 -0.188641 0.0106945 -0.114504 
-0.198797 0.00803527 -0.113765 -0.163842 0.00778629 -0.112648 -0.146484 0.00782321 -0.114744 
-0.20384 0.00904859 -0.00551003 -0.153454 0.0119498 -0.108269 -0.189069 0.00268972 -0.104954 
-0.177148 0.00477776 -0.104363 -0.144491 0.00916568 -0.10483 -0.237324 0.012851 -0.106249 
-0.227441 0.0107356 -0.103493 -0.21835 0.0146579 -0.105329 -0.206134 0.0109615 -0.106735 
-0.16154 0.00583879 -0.103115 -0.134723 0.010953 -0.105578 -0.198397 0.00387645 -0.0999096 
-0.152253 0.00519857 -0.0994519 -0.131448 0.005861 -0.0969553 -0.244931 0.00868083 -0.0994391 
-0.180286 0.0148078 -0.098301 -0.169928 0.0113825 -0.0987025 -0.177154 0.0077018 -0.000202906 
-0.23514 0.00974626 -0.0969644 -0.208391 0.00545649 -0.0986999 -0.179132 0.00530673 -0.094575 
-0.217915 0.00870531 -0.0972983 -0.192463 0.0092225 -0.0938624 -0.160871 0.00985697 -0.0935466 
-0.151062 0.012672 -0.0919966 -0.226329 0.00410654 -0.0914604 -0.215578 0.00631538 -0.0878747 
-0.199268 0.00599408 -0.0863352 -0.186838 0.00459926 -0.0869548 -0.169019 0.00448156 -0.0909208 
-0.142245 0.00625886 -0.0939186 -0.244988 0.00993288 -0.0893693 -0.207251 0.0111866 -0.0904516 
-0.177115 0.00860753 -0.0853541 -0.140192 0.00887062 -0.080343 -0.236872 0.00720956 -0.0840911 
-0.223466 0.00601007 -0.0798693 -0.159676 0.00485991 -0.0809224 -0.150507 0.00877372 -0.081715 
-0.208503 0.00994131 -0.0804968 -0.192665 0.0142826 -0.0811778 -0.167615 0.0105984 -0.0829468 
-0.150382 0.00737109 -0.00137678 -0.24498 0.0058924 -0.0766792 -0.232356 0.00543498 -0.0752657 
-0.199358 0.00790904 -0.0765163 -0.18285 0.0114746 -0.0776843 -0.173205 0.0091065 -0.0747665 
-0.186091 0.00672481 -0.00588883 -0.222102 0.00752308 -0.0684272 -0.189747 0.0063256 -0.0725391 
-0.180121 0.00732382 -0.0667765 -0.163251 0.00571902 -0.0681226 -0.139537 0.0066233 -0.0669973 
-0.212522 0.00863558 -0.0713676 -0.244867 0.0142423 -0.125633 -0.153841 0.0047673 -0.0728158 
-0.147996 0.0122853 -0.0670924 -0.198944 0.00655992 -0.063785 -0.244602 0.00650866 -0.066676 
-0.231802 0.00474107 -0.062725 -0.207647 0.0138369 -0.0608192 -0.169733 0.0125341 -0.0646319 
-0.222242 0.00549527 -0.0585384 -0.212117 0.00546424 -0.0575477 -0.189195 0.00947197 -0.060519 
-0.175818 0.00788307 -0.0576129 -0.145425 0.00592315 -0.058833 -0.237126 0.0109421 -0.0563481 
-0.199215 0.00602308 -0.0526895 -0.155658 0.0138117 -0.0566943 -0.1643 0.00756636 -0.0543139 
-0.244384 0.00441169 -0.0527812 -0.230365 0.00596807 -0.050923 -0.183056 0.00828535 -0.0506926 
-0.145846 0.00594183 -0.0487985 -0.191249 0.0148686 -0.0508354 -0.169493 0.00984256 -0.00632549 
-0.226052 0.00665251 -0.00208886 -0.221165 0.00773657 -0.0470507 -0.211181 0.00702667 -0.0476962 
-0.192116 0.00579773 -0.0448285 -0.156616 0.0135787 -0.0458078 -0.131978 0.0123089 -0.0432045 
-0.24434 0.0110735 -0.0397868 -0.229681 0.00661141 -0.0392165 -0.215004 0.00723217 -0.0363705 
-0.201316 0.00522946 -0.0371064 -0.164836 0.00807405 -0.044361 -0.180162 0.00683565 -0.0408748 
-0.195406 0.0112643 -0.0127987 -0.147957 0.0136629 -0.0408066 -0.170524 0.00611302 -0.0344841 
-0.223292 0.00861808 -0.0304552 -0.189054 0.00947082 -0.0348926 -0.141765 0.00430717 -0.0362468 
-0.217932 0.0124793 -0.0024617 -0.22772 0.0054918 -0.0120664 -0.1619 0.0133875 -0.0352976 
-0.156645 0.00569896 -0.0310133 -0.207945 0.00919169 -0.0295533 -0.197011 0.0108162 -0.0283145 
-0.175858 0.00657839 -0.0235791 -0.151784 0.0125533 -0.23264 -0.234639 0.0124678 -0.00122156 
-0.166346 0.010837 -0.026713 -0.136013 0.00616937 -0.0281328 -0.232413 0.00747725 -0.0222543 
-0.189932 0.0109566 -0.0212235 -0.242345 0.00623586 -0.0198738 -0.218632 0.00952143 -0.0212682 
-0.158532 0.00701725 -0.0204866 -0.139992 0.00763179 -0.0181197 -0.238493 0.00619412 -0.00827349 
-0.13825 0.0120988 -0.0515626 -0.228564 0.0143093 -0.0457217 -0.149344 0.0112097 -0.0181392 
-0.130864 0.0093245 -0.0121604 -0.204538 0.00738384 -0.0181958 -0.155776 0.00640653 -0.0102817 
-0.168705 0.0123575 -0.0160017 -0.181272 0.00793684 -0.0145647 -0.235363 0.0144103 -0.129548 
-0.151604 0.0148133 -0.209447 -0.231628 0.0145872 -0.0645222 -0.141478 0.00772149 0.00424841 
-0.210343 0.00453964 0.00242871 -0.191635 0.00779502 0.00236108 -0.167295 0.00676253 0.00540154 
-0.169972 0.0134769 0.165049 -0.244921 0.00610478 0.00696233 -0.234273 0.00854809 0.00819346 
-0.175048 0.00772393 0.0118034 -0.156593 0.00579976 0.00878669 -0.223711 0.00360422 0.00719963 
[...]
POINT_DATA 4217
FIELD FieldData 3
id 1 4217 int
3492 3065 3924 1792 871 99 7 4066 1043 
5 1003 3473 1750 484 3551 1856 2636 3034 
3472 1779 2638 1317 3988 3180 1786 481 2693 
2597 2184 3898 919 3038 876 596 3995 3926 
3063 586 1337 3942 49 3024 3631 1797 3543 
2218 12 1366 2325 1757 1483 917 475 2655 
1325 450 62 3484 451 3056 1313 492 3761 
1800 2217 1413 1777 1344 3055 3057 154 489 
531 3187 1444 880 3053 1761 8 3937 1321 
462 464 3070 3074 1842 3946 16 486 878 
15 910 1420 3471 465 1908 3108 2207 606 
1758 1350 3545 3059 3067 2625 2736 906 1837 
2263 36 2641 925 904 1320 546 3128 37 
2601 911 1778 1791 1031 3925 4034 1906 3938 
912 2629 3177 2746 1363 2622 2177 54 10 
1032 488 2212 3461 921 1762 2632 2631 2200 
3930 2256 1375 2752 39 907 1915 1310 59 
1445 3504 2634 2606 1787 2621 3465 2644 1793 
2312 3033 3068 3896 2220 1801 485 3051 2198 
2299 3948 602 444 2602 2195 1756 3050 3893 
1781 3511 2201 3054 3603 2183 2764 2341 1357 
2211 2598 3951 1788 52 3630 1358 2732 900 
3508 1924 2336 2314 2755 1849 3894 510 2196 
996 1838 1751 3544 3506 2180 961 2646 1753 
1911 1790 3532 46 3182 55 3049 3196 3195 
1904 3459 3491 74 1352 3115 2353 3030 1339 
1340 3932 1912 1351 3469 2756 875 3992 3982 
3076 1900 594 3028 1898 452 3542 4 9 
3026 3905 2295 1346 1408 3899 2223 3467 902 
1316 1347 2645 493 2699 182 3464 1361 38 
2698 2620 2643 1371 220 869 3078 490 1512 
923 2679 446 2642 498 3032 883 3022 476 
3923 1401 3940 1333 3919 3044 873 110 933 
1510 67 3643 151 467 1365 2236 2664 881 
3496 1360 3215 890 516 3635 1051 77 2 
218 548 3104 1830 3236 512 1054 1470 3041 
3928 2723 3493 3202 2626 51 1947 3148 3971 
3561 30 23 2670 4026 1443 953 3965 2658 
3480 11 625 185 2650 3957 4009 206 2204 
3917 1938 2342 3146 42 3145 211 499 209 
2231 620 896 505 3968 4013 461 558 17 
1397 3918 3579 3097 3537 1381 449 1069 3052 
3093 2661 33 4104 470 92 1776 2239 2374 
1878 2611 2248 3969 34 2637 43 2612 643 
938 4094 86 3645 3512 1785 1767 3955 18 
2676 3973 3952 4106 2235 886 2226 3907 3513 
459 1376 463 3099 2654 2669 948 1807 1087 
2722 1367 3087 66 25 3981 1822 1820 3970 
2677 1501 561 1809 2253 2229 3671 3039 3912 
495 2240 2244 892 3518 2233 1331 628 3101 
3110 2665 2241 3474 1370 1810 20 2242 929 
2234 1378 4091 64 3666 944 2609 1769 3527 
3963 2668 1392 1951 2237 1862 520 571 509 
1816 3479 1382 29 3533 1811 3135 2614 2192 
3517 3098 1389 656 984 952 2724 3657 956 
954 930 559 1334 2191 1963 2666 1377 2768 
3153 456 2190 3111 884 518 1500 1527 3568 
2281 1060 2230 2186 1514 1429 1962 931 1871 
891 3103 27 3523 1821 514 3528 128 2189 
567 3525 1817 932 1928 1772 2193 3964 893 
3540 3476 1520 1770 1815 3090 2769 3911 2707 
3524 458 72 28 3046 1395 3960 934 1475 
3920 1808 3092 2613 2809 1766 3953 3921 3959 
2227 199 3972 990 3648 2194 3083 85 3569 
75 1071 1335 457 1329 2608 3916 1394 638 
2252 3966 3535 76 216 3913 2232 3980 3538 
3516 2673 227 4111 882 940 1374 3515 2378 
2224 2660 3230 887 1516 947 3536 3141 3914 
629 1326 2251 945 508 3903 169 1803 608 
2208 1755 4033 1400 1783 3494 3502 2209 142 
966 1477 1356 879 3489 2178 3495 453 1354 
1014 922 2182 3908 474 3460 2337 3922 3486 
2333 3029 471 1345 2640 3163 1015 1752 3190 
3950 2176 590 487 538 1476 1794 1852 454 
2635 2628 2659 3466 3035 1846 162 2202 47 
3897 2633 2216 1348 535 3061 2627 3975 576 
3112 874 3485 4004 868 53 58 2199 3077 
2607 1467 3902 40 3487 1312 901 3031 1798 
898 1406 2652 1362 2277 2604 3931 1338 2649 
1796 926 63 2694 466 3037 1349 2221 3503 
3071 913 915 491 2648 3482 1022 2623 1342 
1355 41 1417 2600 905 1010 181 448 3 
1883 3624 3892 634 899 45 3935 2639 889 
1343 581 4082 445 1019 1784 35 3086 2181 
2205 872 3036 3510 3944 1775 1950 3611 3047 
1411 3158 2599 176 3189 3106 2309 3147 1311 
473 3521 1479 3120 3470 951 3929 1865 2624 
96 4050 3994 3620 3483 1619 6 1 877 
483 50 1774 1921 3927 4047 4030 3025 4053 
1795 480 3608 1314 2210 177 914 1759 525 
909 1353 1341 1322 468 2334 2328 4065 3943 
3079 2379 2185 2219 1923 2305 1044 2215 3947 
1416 89 1391 4103 500 93 1318 3936 2203 
2179 2758 1396 1359 3958 3522 3962 4073 1330 
935 3229 939 3069 4017 4071 2804 519 1528 
3570 3534 496 3228 3978 2349 1499 190 2656 
3213 4080 927 1763 3904 3064 3949 3094 511 
653 60 1826 4083 3477 2250 515 21 3578 
1336 217 523 2243 2653 2280 225 916 187 
4076 84 88 2783 3085 1061 3526 1812 1384 
937 3088 2615 3979 3081 71 224 215 950 
888 194 2663 2347 3530 3043 4024 1813 513 
1080 3144 1372 3107 1827 2254 3048 955 2228 
942 2291 2708 3961 2672 3082 460 3910 193 
1828 1819 2188 1937 1386 2678 3644 2610 32 
991 1934 3478 4074 4084 521 3091 1390 2657 
95 1768 507 1771 68 1824 1879 3100 24 
506 3529 3109 219 3967 3539 1327 3080 2293 
1422 2238 1874 1385 1062 3915 3708 3976 3481 
1078 494 3045 2674 3531 90 79 895 1387 
2651 894 1423 1833 1433 501 1764 4097 69 
1393 2617 2225 1441 3475 1380 1328 91 3520 
2383 1823 126 1511 1373 1324 604 4000 579 
3599 3164 544 13 2464 1595 4039 3627 447 
2340 1854 2042 2403 3604 158 1009 3183 607 
1026 4064 2762 482 3598 1023 1035 2466 4158 
155 1841 152 1922 1403 4001 1028 959 2686 
3616 1006 1448 2329 1016 1552 2451 4060 1886 
2738 3622 1535 1754 3891 2749 2301 2462 1040 
2315 2313 3628 2687 4058 3552 1882 1891 573 
2270 1789 2267 2603 183 306 1038 1410 103 
2324 1419 978 2757 2259 170 1903 2310 918 
3729 2730 1027 962 1480 112 974 2331 3197 
1890 973 1037 4173 109 4043 3075 3623 245 
3133 163 1896 968 740 1446 977 3556 2327 
2275 1782 2206 178 156 2697 1844 1011 3173 
3201 610 3939 3602 3129 2258 3614 2681 1418 
3996 2753 600 2695 1913 1414 598 3132 4003 
3125 1888 4190 1532 908 3554 578 3310 957 
1850 2761 3596 1909 3592 2733 3302 592 1853 
3131 1858 4067 4038 2696 145 1452 1018 572 
114 172 1030 530 2320 2692 4194 2803 3172 
2861 1897 1988 167 575 3181 1902 3618 1024 
1968 1041 2272 2307 545 3174 2397 675 969 
3127 3121 295 2734 605 3027 603 2306 101 
1765 2725 3130 3558 4117 1899 541 3220 532 
2213 3590 2274 1851 597 4037 1409 3990 116 
4172 870 1482 574 3709 528 599 1857 1058 
3168 2691 1430 2197 2889 2766 1905 3625 4061 
542 555 4051 3595 2771 584 1867 613 3170 
967 3984 652 1039 1637 1332 1885 2351 3154 
1025 1029 1117 3160 1036 2308 4031 3559 2260 
1451 1920 3985 1471 1004 1884 2009 1085 3612 
3233 553 3613 1399 2332 1450 577 1453 2367 
3690 3607 2742 2822 3629 3114 3308 504 3205 
1437 180 2688 963 2728 4069 4029 337 22 
3058 198 2041 3167 1454 533 477 184 48 
1917 1405 105 3733 4108 147 3688 1802 2991 
1449 44 618 3794 2268 623 1887 4078 3250 
102 2276 639 3987 192 2605 3300 975 70 
3574 4006 4087 1455 3166 1412 1579 1845 1379 
3563 213 3587 3258 4205 1638 2799 1957 1083 
615 3209 3217 2292 3192 1526 1459 2806 1495 
1048 1407 2667 1428 2709 1901 1053 3188 2356 
222 2366 4090 3212 1864 3672 630 980 1932 
1654 987 965 327 3105 133 4198 3156 4015 
3649 2290 2630 2363 195 3241 4132 2415 1935 
315 3716 3650 1119 1424 2382 3235 123 2775 
3207 1425 4223 3222 1659 1141 636 136 635 
3040 1836 1179 3206 4085 2278 3333 342 2788 
1067 4020 4025 4150 3208 1926 1868 2294 1046 
565 2370 2481 3575 4008 3138 3711 551 570 
609 2781 3137 642 3143 936 4139 2776 2717 
3771 1805 208 1131 646 121 1942 3703 1804 
1832 3637 2352 1198 1497 1945 1426 3234 2485 
1432 2792 1081 1047 78 329 321 1431 983 
3668 552 229 3096 941 2718 2247 2937 3221 
1383 2662 1435 200 2703 568 1505 3954 3216 
1990 1059 641 645 2801 1202 981 4086 647 
2245 3656 632 3781 3140 1434 1369 3139 617 
1063 1436 655 3646 1875 3642 4216 2807 1955 
2002 4088 207 3586 2772 616 2357 1927 455 
778 2782 3149 3157 633 2249 1073 159 3231 
1079 2358 989 3238 2935 1930 2785 3783 1082 
1866 1056 1949 1442 1872 2802 3576 1965 1956 
2348 1518 31 2086 997 2501 631 2284 1863 
1508 3906 2740 3204 2795 2712 627 2794 352 
1066 3670 3956 3669 1002 2505 3583 1513 2841 
4089 1941 569 2068 137 946 1960 3909 1954 
2705 4092 2714 648 139 3214 4112 2779 3633 
2285 3102 4027 556 4101 268 1961 3647 2376 
3658 131 2907 1946 986 2361 1368 2790 637 
203 2800 522 4012 2386 550 4023 1439 94 
3582 622 3639 4028 1869 197 1001 554 127 
698 3661 1049 2059 204 1522 1070 2711 3084 
3566 4143 1498 1493 3567 228 4018 1473 2704 
2419 539 585 2763 526 3159 601 3933 1461 
583 175 589 3557 4115 150 3116 3654 2317 
1012 2264 149 3119 2302 903 1458 2760 4057 
1910 3610 1839 308 144 2680 3728 4055 1918 
1907 3118 3760 3184 2396 660 3547 1894 4041 
1460 57 714 1021 3606 2269 537 970 2316 
1150 4187 1402 2914 3062 106 2330 3169 2311 
3298 3509 281 3895 971 1834 1462 4046 4002 
1463 2759 588 1447 2257 3548 2890 2040 3134 
3560 1163 108 1100 3186 1013 4036 117 118 
2322 1592 1486 3555 186 2387 670 346 2700 
1109 2647 1315 3997 1096 3468 1017 2020 157 
547 2266 2744 3171 3281 174 1484 524 3124 
98 543 3490 3626 3615 4068 472 3609 1565 
2690 2339 2265 173 3191 4171 4042 1456 2255 
2344 614 1760 1052 1472 2321 2398 2343 3553 
1861 196 3194 960 1799 2326 3463 2682 2407 
1617 168 3565 82 4035 593 2726 1893 4007 
2727 2702 1840 2084 1097 129 4049 3122 3562 
191 1415 976 4048 745 3218 3993 2731 2271 
2754 3113 3193 179 738 3983 3462 2821 529 
1749 2685 924 1843 4062 4045 1005 612 3301 
587 1464 469 1944 1995 1211 80 1573 2786 
1889 1515 3676 3360 654 1831 2780 3801 1948 
81 1210 1895 2354 4014 982 2286 2282 4109 
3662 2369 2922 3665 1504 143 122 1943 1881 
100 2355 4022 2050 3577 2706 1084 1999 1558 
3224 3784 3242 943 124 3791 2793 125 3655 
3203 1122 2261 1953 1517 4040 1991 1057 3572 
695 1488 2300 3632 4215 2719 3641 3185 549 
1925 3223 2939 140 1086 3663 2778 1502 1642 
1506 2847 1065 694 2675 3585 2298 205 221 
2056 1494 1427 1814 83 4079 2425 995 1064 
2497 2913 2384 4107 2784 2345 4081 1509 1870 
3617 2777 3571 4010 4212 2933 1075 214 130 
4011 2297 651 2791 1876 2364 212 1966 2720 
3279 1074 135 3239 134 1123 4100 3673 120 
502 113 189 3337 3653 2710 1525 3136 4077 
2713 3346 1076 2616 1000 3573 1940 1572 626 
4075 992 2074 2288 3589 202 2283 3660 2359 
2774 928 3636 994 3227 4213 3155 3581 517 
1959 560 619 1524 3588 3977 3240 2279 644 
1050 2246 3211 4098 2805 1491 1958 3142 1825 
2350 4110 65 2375 1438 3659 2808 2187 640 
201 138 621 19 2507 1914 3634 885 649 
1564 4102 3095 2368 2296 998 1492 3519 562 
566 1877 4095 2287 1933 761 3175 3364 2380 
563 2773 2671 2012 3316 3252 2824 244 3294 
3746 3303 3601 1971 3280 1584 3422 1582 97 
1581 2044 2273 3600 3721 1577 703 3262 4168 
2875 285 248 282 2810 2013 2767 3254 4164 
2871 61 160 711 4135 3292 705 104 2323 
1986 1110 4188 964 1936 2037 3328 1855 3730 
3266 1973 2542 536 1835 2453 3319 773 3726 
1169 3679 247 3752 725 2862 367 3998 171 
2873 3323 2014 2303 357 2564 3749 4121 4192 
2026 3689 341 3686 4130 2442 232 2408 3991 
1007 233 3737 710 1398 2827 161 3322 1148 
107 3321 3330 1615 1588 3754 730 1468 2461 
2683 663 3732 4197 812 527 2864 1919 1481 
1688 1892 611 1599 3743 3290 2448 3176 2828 
677 1548 3751 3304 2459 2894 1976 274 2036 
1593 1983 289 3165 3747 1982 273 3727 979 
2452 1596 1108 1539 3198 736 165 3745 3257 
1094 4177 4186 1166 3687 1158 2684 4182 972 
2735 2404 3326 241 595 3697 1469 2457 1222 
733 4169 3693 1585 3774 2468 2867 1696 1590 
2262 4181 280 1089 727 2435 4032 2888 2338 
1536 4054 3742 3306 3253 2524 305 1466 1474 
1551 1138 2092 299 2456 2394 2880 2015 2739 
4129 2405 3681 2866 2433 2729 3246 3597 1267 
148 580 713 3318 2440 1142 4238 3683 4183 
279 2987 2878 3621 2388 4167 1478 777 661 
301 1107 2860 314 3249 1146 3379 2874 4296 
246 283 2304 3763 296 2022 2023 3232 250 
4056 1088 1981 1717 1929 2829 2831 277 3593 
3766 2892 2884 722 385 2877 2813 1156 1538 
1135 2007 3265 821 3162 4189 3723 2859 298 
3605 2751 4159 1576 2812 307 1160 2447 164 
1154 4185 2444 1544 115 4127 4131 1601 3753 
540 2891 1608 4141 2883 2045 3200 3259 2817 
4195 4176 2905 716 231 4312 4184 1161 4145 
4114 2472 3989 2737 1133 3619 2449 1205 265 
2080 1586 1457 1208 4243 1008 236 4218 2902 
2834 2938 2470 3759 255 2035 1609 2088 4196 
1167 3549 443 4149 723 1113 4151 3769 1199 
2928 3772 2089 3828 2377 3275 4193 2167 1143 
294 257 2098 3795 223 2748 1534 2798 2925 
2164 3331 1440 3685 4228 4320 2532 2319 1967 
2429 1974 3273 2899 259 2043 3151 331 319 
333 2362 3341 278 4295 1657 2850 999 2360 
1192 1644 684 1188 3407 332 687 1916 1994 
2489 267 3451 4170 253 2054 2001 1603 2064 
1631 335 1095 4257 2455 750 4203 4152 1136 
4072 2917 3702 4138 2844 3707 3867 3245 688 
235 2503 4231 3640 1128 1115 1124 2003 2929 
2474 2421 2514 1247 3719 3773 2420 774 3349 
1556 153 3277 2066 2289 4200 767 2865 256 
3362 769 4147 3889 3226 4221 839 2069 316 
1178 1132 1646 2428 2910 330 1651 2109 1939 
2173 3788 2418 762 3237 3352 2500 3698 1195 
1873 4236 2414 350 4202 4325 3370 1553 3354 
3714 343 1621 328 1212 1723 1677 340 3356 
765 770 1118 764 1574 266 1567 3274 4156 
2070 2482 210 1674 1203 2416 2051 2494 1077 
993 2908 748 4154 1190 4313 2067 270 2062 
4318 1302 2373 4137 1176 3282 4224 2513 3768 
1289 775 1201 1214 2901 2372 2846 1183 1185 
1193 3334 779 852 1620 2057 2789 317 1507 
345 318 1196 1523 2498 3371 322 4144 303 
2488 2796 4199 2842 1560 4229 2509 1121 1628 
3447 2511 1055 1623 3806 2410 1490 3638 344 
3288 3796 2787 985 347 2912 692 3436 3369 
1042 3823 2478 1489 2078 2853 348 1120 1570 
1209 3336 3276 2000 4155 4217 624 3286 3720 
2061 763 3667 3361 1200 2103 4096 1992 3150 
2927 1626 2568 3779 1630 372 1648 1286 2371 
4093 1072 3704 3359 3225 3778 264 2055 4153 
3152 650 3350 132 1421 2595 4161 3332 759 
2085 2076 1655 2512 1181 3790 3764 2923 3457 
254 4226 1238 755 3798 3651 689 3338 290 
3423 3691 760 2060 3821 326 1045 423 3580 
2024 3786 756 3363 1184 1860 1602 4005 3413 
386 1972 2432 2954 3564 3986 404 1587 4287 
2818 3126 2124 674 2870 2811 1521 2881 1034 
309 166 2896 1578 2814 4174 3161 3291 1140 
729 2445 2034 2508 3755 1103 1174 3740 1149 
2819 2038 708 3372 1099 3731 2689 2441 4070 
2750 310 2033 2434 662 1404 1604 1641 2745 
3261 1978 2019 239 2765 3263 3677 668 2747 
1711 3313 3694 669 732 2895 3307 1157 2816 
1665 1969 287 1598 734 704 3251 3178 3591 
4162 3293 2879 3594 3312 2743 3846 4191 4122 
1531 1589 286 4166 2335 719 238 1537 1173 
2389 3260 1605 731 2701 726 3255 4118 2886 
814 3744 4120 2393 3317 3756 4119 1530 2071 
1731 1170 1485 666 3329 111 2021 2028 739 
2465 291 1090 293 1583 1134 3736 3420 311 
1162 3757 3248 3117 3762 2093 3750 3325 534 
2454 2090 2487 4052 3295 3296 3264 2872 4294 
2471 188 249 381 3838 1698 297 958 4105 
2436 1245 396 1848 2039 3324 3410 2876 2446 
3758 2018 2467 1540 1093 672 3682 1529 1975 
3199 2458 4113 1632 240 1465 2473 720 1168 
3546 1668 2990 1137 1610 665 1547 784 2823 
2741 3684 3692 1616 2437 2519 2318 1847 4126 
4165 1542 1105 2868 2855 304 243 3418 251 
557 697 1114 3007 728 119 2058 2934 3449 
3287 3799 4063 2008 3652 3700 582 2087 3888 
3243 2770 2715 2479 1213 4059 699 1033 3219 
300 2046 4099 2903 680 2463 2930 2852 2882 
349 1563 1101 1194 2919 1571 2721 4234 2381 
712 1092 3340 781 564 3271 3256 2426 754 
3584 1206 3343 1650 3272 1496 757 4136 1859 
3664 4230 2346 1487 772 2502 2904 691 2716 
690 3269 2079 4148 744 3701 1165 2797 683 
4146 1652 3999 4225 2833 1647 419 686 693 
4237 4227 2385 1068 1977 1639 1653 3270 1998 
1566 3706 1562 2365 1649 2065 2837 3366 4157 
4019 320 2915 3267 2154 1627 696 3775 679 
828 743 1568 4222 4016 355 226 2424 747 
3871 3713 3803 1112 2052 2158 2492 1129 1130 
2856 681 4220 4210 2918 1559 3353 2843 3393 
324 3283 758 3710 2427 2431 334 382 2900 
1656 1629 1297 1177 2926 862 3358 141 2460 
678 2506 3804 4233 3824 1126 1503 3365 3712 
1996 766 3882 1640 4204 1880 1215 1633 1636 
272 3819 2906 1159 1997 2053 2916 988 1952 
1102 3836 2006 3278 1575 1197 2049 4211 3785 
1300 146 2510 4206 3314 2099 3383 2968 3850 
1661 3809 2048 3841 2142 1276 1704 3320 3412 
4163 2047 400 2169 3853 1265 2825 2122 2135 
2898 2543 230 2970 2983 1271 2144 3289 384 
832 4245 3680 3299 2031 3402 1673 2562 3839 
2406 2391 4277 4116 4178 1543 1546 2548 3843 
3424 276 1706 1152 237 364 2552 1985 3725 
1266 2011 831 2143 2126 2134 4274 2400 3403 
395 700 811 2025 3315 252 706 2138 3735 
4251 2550 2556 2401 2858 4247 4179 3856 1224 
2145 791 815 737 3832 1255 4273 2561 2539 
4276 807 4290 829 3382 358 368 4281 1716 
2972 392 3855 1712 1218 4292 3842 3380 2137 
1606 2975 3860 1153 1226 1715 2140 1106 4275 
398 2527 830 4246 2133 3852 707 1262 4284 
2830 2553 2132 3400 1669 4293 2565 1611 1710 
1257 3734 408 825 2885 833 3408 1155 1275 
4255 2121 3384 787 292 724 1594 1220 1705 
2943 2966 2439 4244 1227 1693 827 2969 2974 
3375 1707 1258 2521 1228 671 1248 2952 3414 
4297 3851 3813 788 1549 2390 782 2128 2951 
1278 356 2893 1145 2887 2546 2438 4302 702 
387 2469 1533 2863 2537 3840 399 4124 1671 
2545 3327 2032 2946 1104 3858 390 817 715 
313 2978 2531 2118 389 4285 2136 3845 1663 
1098 3018 2129 3812 2010 361 3865 657 393 
3415 1260 2820 1175 2940 2526 2515 1091 3417 
2941 409 4298 1249 2096 806 2557 2981 3859 
4301 2152 4280 4288 717 2965 3368 3847 823 
1701 2982 365 2985 1613 3857 369 1225 3458 
2815 4286 1223 2956 3426 785 1708 797 1691 
3674 3724 2986 3848 664 2558 2114 783 2832 
1545 809 795 4328 1283 2139 3395 3837 2107 
1699 4242 2964 2869 4133 4291 2097 820 3428 
2897 1714 2949 1250 3355 1580 2931 1685 2984 
2104 3005 2522 3373 2596 2016 2995 3399 3284 
362 441 741 1666 866 2994 360 3884 1643 
2958 3021 1561 2921 2168 2119 855 1303 1305 
1237 1622 3385 1557 2149 4269 1189 2100 837 
2161 2911 3805 1233 1681 375 2549 4263 1993 
2160 3820 4272 1683 2413 1741 4331 1739 431 
4317 261 4044 1555 1740 383 3890 2909 2976 
427 2101 3268 1240 849 1207 1127 2165 2587 
865 2577 3699 3016 415 242 2504 3717 4259 
1230 3437 4232 262 1732 1236 4219 4326 2113 
847 804 2490 422 3345 1293 2395 2838 354 
3800 4306 1295 3777 1235 3797 3439 2491 3787 
3792 1182 1180 4123 2961 4201 3715 2484 413 
374 2148 1569 424 1204 768 2920 1282 2579 
1679 776 3452 2108 3444 380 442 370 3864 
1675 4316 323 3429 1301 1726 1234 4310 4323 
4332 434 1624 1290 271 749 3770 377 430 
2959 3386 3818 1743 2572 2105 260 1279 2430 
263 2496 3008 421 2845 1747 3002 3780 1116 
2172 2533 4319 2111 1306 2585 2423 414 3802 
3339 1722 353 3438 336 2580 1744 2591 685 
851 432 4207 2417 4267 1186 1298 3010 2569 
2146 3776 1733 4303 3887 2535 3822 3878 4021 
2576 2583 3453 1239 3012 4209 3433 1727 1737 
2584 2083 2955 2112 3826 3718 2851 2411 1231 
258 746 1612 2081 4314 2993 1291 436 2848 
376 3442 3388 752 2586 2594 2072 1284 433 
858 1736 2936 1748 2156 3876 437 3886 378 
3392 426 435 3861 2159 1111 801 3445 3434 
841 742 420 3019 1281 2477 800 1729 1299 
2571 2997 1232 2171 2153 3397 4260 3448 1734 
3872 418 3455 3880 3430 2110 4321 1658 401 
2536 2141 2948 2988 2017 2029 3409 3244 3739 
1695 2950 1703 3678 842 1660 1980 394 3829 
3404 1277 1541 3854 1667 659 810 3416 1256 
2117 2030 3849 2945 2409 2115 819 2979 2544 
1219 407 3811 4254 826 1251 718 2541 4289 
4250 2094 3844 2523 438 2123 1187 709 1172 
3748 3374 1171 1268 3297 838 848 816 1221 
4128 3247 1690 2963 3377 1600 1252 1261 2392 
3810 338 3305 1591 786 1697 359 792 2547 
4278 3722 2947 3376 796 1270 1139 2131 4240 
363 4134 1979 1243 4249 2130 3309 411 234 
302 2971 4261 1607 2559 397 3311 1970 1269 
1264 1700 1692 3381 1662 822 1229 3441 2518 
2989 2116 2443 854 2967 824 412 2399 2517 
1272 1984 790 3405 3427 3881 2402 1713 3833 
1670 403 1263 2996 402 1151 3835 1254 2127 
780 3741 2980 721 3425 406 3873 1672 405 
3421 1597 3738 2560 3808 1702 1987 2944 3831 
673 2450 284 3885 1253 3406 2175 1694 835 
3378 2973 2095 4160 3866 275 4125 2027 3695 
391 1664 1720 813 2942 1550 1144 1217 3675 
3807 3834 1709 4299 1689 2520 1718 1259 2120 
410 388 2563 2977 4253 1989 288 4283 2125 
2826 4279 4307 3432 4308 1164 798 2528 1246 
3443 440 269 864 658 850 2480 2567 2953 
2854 1686 2538 4324 2106 2151 1678 3815 3347 
808 3344 2483 2836 3789 2992 3431 3357 1216 
2155 325 859 1725 3014 4270 1742 3348 4264 
857 1241 4309 2530 2005 3869 3335 701 2077 
4327 2998 1554 3389 1676 2840 676 2999 2162 
2573 3874 4329 2063 3435 339 3454 2924 3440 
428 1719 3342 3814 853 2534 4241 860 3020 
2075 1931 4256 1304 2004 3000 2582 2493 2163 
2957 3351 1242 4258 4208 1684 3863 371 3396 