# vtk DataFile Version 4.0
Generated by LIGGGHTS
ASCII
DATASET POLYDATA
POINTS 207 float
-0.24345 0.00789323 -0.244921 -0.220183 0.00776831 -0.244974 -0.210608 0.00769794 -0.241971 
-0.201019 0.00770556 -0.244997 -0.181498 0.00792296 -0.241979 -0.168719 0.00788013 -0.242094 
-0.231964 0.00771534 -0.239221 -0.191837 0.00785853 -0.240709 -0.243829 0.00790216 -0.231958 
-0.233075 0.00787777 -0.228687 -0.166496 0.00774927 -0.229135 -0.24472 0.00769005 -0.221971 
-0.178912 0.00787917 -0.21809 -0.234743 0.00771109 -0.213833 -0.223687 0.00768399 -0.216726 
-0.197338 0.00791224 -0.21543 -0.227305 0.00784663 -0.206902 -0.217299 0.00788202 -0.207078 
-0.172907 0.00766927 -0.200898 -0.245 0.00780108 -0.193633 -0.229743 0.00767022 -0.196665 
-0.218126 0.0077252 -0.197073 -0.206439 0.0076826 -0.189353 -0.192578 0.00788647 -0.191826 
-0.181633 0.00766098 -0.189392 -0.169232 0.00771511 -0.191188 -0.230991 0.0077597 -0.186721 
-0.244601 0.00767271 -0.180649 -0.223708 0.00772454 -0.179805 -0.204101 0.00769857 -0.178942 
-0.191834 0.0078545 -0.178036 -0.214365 0.00771315 -0.173619 -0.169055 0.00791187 -0.172176 
-0.162464 0.00780546 -0.164277 -0.24395 0.00770611 -0.157718 -0.182225 0.00772258 -0.15796 
-0.217213 0.00767722 -0.154272 -0.166771 0.00792908 -0.15486 -0.244374 0.00771536 -0.147162 
-0.224885 0.00772249 -0.147752 -0.234421 0.00788375 -0.14456 -0.211207 0.00769913 -0.140841 
-0.163204 0.00790655 -0.14317 -0.243527 0.00777962 -0.137043 -0.227055 0.00785402 -0.137765 
-0.187342 0.0078902 -0.134151 -0.234961 0.00767111 -0.128733 -0.222073 0.00769878 -0.12897 
-0.212135 0.00767842 -0.130812 -0.178031 0.00769714 -0.130424 -0.159816 0.0078383 -0.130642 
-0.245 0.00777976 -0.126731 -0.196411 0.00772034 -0.126352 -0.18643 0.00770229 -0.122562 
-0.238231 0.00769858 -0.119258 -0.228153 0.00793545 -0.120926 -0.219084 0.00771754 -0.115719 
-0.208208 0.00781597 -0.118945 -0.173462 0.00787512 -0.120007 -0.163527 0.00784686 -0.118348 
-0.244872 0.00769366 -0.111742 -0.210822 0.00770156 -0.10927 -0.229363 0.00769932 -0.10522 
-0.181624 0.00790276 -0.107359 -0.166207 0.00776305 -0.108674 -0.156081 0.00770201 -0.107334 
-0.245 0.00785437 -0.10117 -0.201281 0.00784598 -0.101676 -0.190902 0.00787954 -0.101971 
-0.173325 0.0078704 -0.101201 -0.229498 0.0077272 -0.0951964 -0.189293 0.00788155 -0.0910399 
-0.178025 0.00767798 -0.0923691 -0.188746 0.00786028 -0.0715601 -0.241424 0.00770558 -0.0516221 
-0.161336 0.00767267 -0.0541754 -0.245 0.00768382 -0.0279911 -0.186376 0.00772002 0.0067818 
-0.199779 0.00790208 0.0172788 -0.231138 0.00770245 0.214461 -0.213065 0.00770052 0.213838 
-0.222526 0.00770349 0.227708 -0.245 0.00788124 0.2338 -0.243284 0.00769127 0.245 
-0.229822 0.00791387 0.24355 -0.143649 0.00773025 -0.244805 -0.133483 0.007882 -0.245 
-0.122696 0.00785458 -0.244813 -0.0527605 0.00788125 -0.245 -0.129707 0.00768372 -0.232748 
-0.137525 0.00785642 -0.226333 -0.0945655 0.0077068 -0.22001 -0.15068 0.00786747 -0.212974 
-0.13841 0.00789265 -0.215998 -0.0836447 0.00790901 -0.211155 -0.108436 0.0078548 -0.189474 
-0.0986651 0.00788045 -0.191829 -0.0816488 0.00774092 -0.192988 -0.154522 0.00772914 -0.18308 
-0.117626 0.00770001 -0.173384 -0.152613 0.00792204 -0.166043 -0.112558 0.00789069 -0.164527 
-0.0960724 0.00770168 -0.167583 -0.0667538 0.00769809 -0.165089 -0.101403 0.00788261 -0.158973 
-0.117947 0.00770294 -0.15586 -0.148553 0.00770857 -0.145285 -0.11513 0.00775385 -0.146017 
-0.0557562 0.0077451 -0.147686 -0.139693 0.00788192 -0.128314 -0.102402 0.00770639 -0.128094 
-0.150695 0.00788124 -0.124087 -0.131352 0.00785617 -0.120561 -0.110984 0.00769869 -0.118999 
-0.0941593 0.00785492 -0.118355 -0.148391 0.00791048 -0.11403 -0.123392 0.00787734 -0.112923 
-0.0545414 0.00769759 -0.111292 -0.126678 0.00769663 -0.0981359 -0.154495 0.00773071 -0.0960174 
-0.133666 0.00770187 -0.0909778 -0.0706722 0.00776019 -0.0623462 -0.0659749 0.00793062 -0.051459 
-0.121479 0.0077172 -0.0134337 -0.088626 0.00784681 0.0479036 -0.068724 0.00772717 0.0816117 
-0.0944692 0.00770343 0.122423 -0.120095 0.00770468 0.176373 -0.0608971 0.00768634 0.235745 
-0.117523 0.00773685 0.240659 -0.0153589 0.00786545 -0.244768 -0.0237621 0.00790491 -0.239343 
8.99817e-05 0.00776401 -0.21924 -0.0253923 0.00792109 -0.205557 -0.0180214 0.00787068 -0.159462 
0.00112292 0.00788307 -0.161847 0.0183529 0.00769437 -0.138772 -0.0308327 0.00788236 -0.0719695 
-0.00267094 0.00769959 -0.0567176 -0.0200673 0.00789446 0.0647055 0.0016435 0.00779274 0.0991466 
-0.0114201 0.00793373 0.170943 -0.0303051 0.00784744 0.182277 -0.00770794 0.00784657 0.19683 
-0.0496952 0.00769959 0.244683 -0.0121793 0.00787751 0.245 0.0710089 0.00784246 -0.237235 
0.0941818 0.00788783 -0.117732 0.0915572 0.00769613 -0.106369 0.0598021 0.00784661 -0.0941098 
0.102081 0.00788559 -0.0931294 0.130767 0.00787543 -0.0862001 0.144646 0.00783828 -0.0663145 
0.0886104 0.00788668 -0.0536143 0.0801298 0.00772944 0.00774387 0.135642 0.0078865 0.0160541 
0.103497 0.00768804 0.0781454 0.0550945 0.00770946 0.103354 0.064982 0.00787613 0.105019 
0.0945818 0.00772202 0.19297 0.136782 0.00788178 0.210368 0.13859 0.00778117 0.220212 
0.141379 0.00778078 0.229817 0.132029 0.00770014 0.244335 0.22656 0.00786962 -0.244999 
0.237608 0.0078792 -0.241736 0.213697 0.00790546 -0.2357 0.23407 0.00790826 -0.231603 
0.245 0.00777934 -0.229717 0.234063 0.00774613 -0.221288 0.217155 0.00773347 -0.211929 
0.226985 0.00787697 -0.213813 0.245 0.00788382 -0.215557 0.20257 0.00787044 -0.201416 
0.226749 0.00787073 -0.20224 0.217964 0.00771538 -0.194927 0.245 0.00788241 -0.163747 
0.180184 0.00769711 -0.149893 0.177079 0.00769695 -0.128125 0.241586 0.00769658 -0.130725 
0.229578 0.0077193 -0.116587 0.245 0.00771979 -0.105396 0.222849 0.00770489 -0.0908456 
0.245 0.00770925 -0.0945726 0.238504 0.00774768 -0.0864052 0.245 0.00792011 -0.0781202 
0.212429 0.00773972 -0.0590582 0.222928 0.00789875 -0.0462077 0.245 0.00768546 -0.0461611 
0.230386 0.00770418 -0.0374805 0.210961 0.00792947 -0.031855 0.221331 0.00770456 -0.032462 
0.243551 0.00788123 -0.0333954 0.245 0.00788058 -0.022083 0.202613 0.00770665 -0.00455475 
0.24468 0.00770434 -0.00103939 0.195436 0.00772612 0.0137527 0.245 0.00790471 0.0237176 
0.242382 0.00780551 0.0342661 0.215925 0.00787374 0.0694026 0.217136 0.00767519 0.0812155 
0.229207 0.00788758 0.0901099 0.245 0.00787769 0.11283 0.237658 0.00770444 0.121488 
0.161828 0.00790094 0.182908 0.194643 0.00771902 0.229488 0.245 0.0079128 0.245 

VERTICES 207 414
1 0 
1 1 
1 2 
1 3 
1 4 
1 5 
1 6 
1 7 
1 8 
1 9 
1 10 
1 11 
1 12 
1 13 
1 14 
1 15 
1 16 
1 17 
1 18 
1 19 
1 20 
1 21 
1 22 
1 23 
1 24 
1 25 
1 26 
1 27 
1 28 
1 29 
1 30 
1 31 
1 32 
1 33 
1 34 
1 35 
1 36 
1 37 
1 38 
1 39 
1 40 
1 41 
1 42 
1 43 
1 44 
1 45 
1 46 
1 47 
1 48 
1 49 
1 50 
1 51 
1 52 
1 53 
1 54 
1 55 
1 56 
1 57 
1 58 
1 59 
1 60 
1 61 
1 62 
1 63 
1 64 
1 65 
1 66 
1 67 
1 68 
1 69 
1 70 
1 71 
1 72 
1 73 
1 74 
1 75 
1 76 
1 77 
1 78 
1 79 
1 80 
1 81 
1 82 
1 83 
1 84 
1 85 
1 86 
1 87 
1 88 
1 89 
1 90 
1 91 
1 92 
1 93 
1 94 
1 95 
1 96 
1 97 
1 98 
1 99 
1 100 
1 101 
1 102 
1 103 
1 104 
1 105 
1 106 
1 107 
1 108 
1 109 
1 110 
1 111 
1 112 
1 113 
1 114 
1 115 
1 116 
1 117 
1 118 
1 119 
1 120 
1 121 
1 122 
1 123 
1 124 
1 125 
1 126 
1 127 
1 128 
1 129 
1 130 
1 131 
1 132 
1 133 
1 134 
1 135 
1 136 
1 137 
1 138 
1 139 
1 140 
1 141 
1 142 
1 143 
1 144 
1 145 
1 146 
1 147 
1 148 
1 149 
1 150 
1 151 
1 152 
1 153 
1 154 
1 155 
1 156 
1 157 
1 158 
1 159 
1 160 
1 161 
1 162 
1 163 
1 164 
1 165 
1 166 
1 167 
1 168 
1 169 
1 170 
1 171 
1 172 
1 173 
1 174 
1 175 
1 176 
1 177 
1 178 
1 179 
1 180 
1 181 
1 182 
1 183 
1 184 
1 185 
1 186 
1 187 
1 188 
1 189 
1 190 
1 191 
1 192 
1 193 
1 194 
1 195 
1 196 
1 197 
1 198 
1 199 
1 200 
1 201 
1 202 
1 203 
1 204 
1 205 
1 206 

POINT_DATA 207
FIELD FieldData 3
id 1 207 int
131 2346 5794 1013 1957 5883 7911 6741 2186 
1984 6357 3538 3028 1269 1458 488 371 17 
3392 1027 603 208 1247 563 1304 1011 4783 
1048 1064 95 5831 3003 1949 47 2804 4135 
2338 3760 3738 921 7074 4561 889 6484 3566 
3629 1118 2507 6159 2301 3365 618 1820 1869 
8326 2428 2361 5380 3374 2100 3282 92 3192 
4830 6454 97 1836 2371 2533 2171 6133 1154 
7017 4268 4486 3628 986 258 1047 1834 6251 
4502 2078 4648 553 6347 8119 575 180 1478 
3341 1172 4546 2373 1214 8483 1368 5001 187 
2869 3674 1383 4136 2221 1439 8287 1555 288 
3043 1217 378 396 4951 2623 262 2494 1930 
1248 4362 1496 755 4504 2053 7899 5126 787 
8696 2559 1444 3327 3270 5244 2449 1621 2118 
3021 1503 3400 7100 2195 7842 5088 809 7815 
249 1545 1785 4273 2748 498 3539 6239 56 
1124 930 1833 692 1356 1874 764 3472 4356 
1379 1320 5920 4496 239 5071 1686 1625 1180 
4318 2230 515 456 2606 8673 1859 264 4482 
2151 1585 662 7818 1483 386 4317 1577 1793 
88 791 305 3147 1146 945 2063 4661 1817 
2152 7117 2319 2917 4478 113 1838 1142 814 

type 1 207 int
1 1 1 1 1 1 1 1 1 
1 1 1 1 1 1 1 1 1 
1 1 1 1 1 1 1 1 1 
1 1 1 1 1 1 1 1 1 
1 1 1 1 1 1 1 1 1 
1 1 1 1 1 1 1 1 1 
1 1 1 1 1 1 1 1 1 
1 1 1 1 1 1 1 1 1 
1 1 1 1 1 1 1 1 1 
1 1 1 1 1 1 1 1 1 
1 1 1 1 1 1 1 1 1 
1 1 1 1 1 1 1 1 1 
1 1 1 1 1 1 1 1 1 
1 1 1 1 1 1 1 1 1 
1 1 1 1 1 1 1 1 1 
1 1 1 1 1 1 1 1 1 
1 1 1 1 1 1 1 1 1 
1 1 1 1 1 1 1 1 1 
1 1 1 1 1 1 1 1 1 
1 1 1 1 1 1 1 1 1 
1 1 1 1 1 1 1 1 1 
1 1 1 1 1 1 1 1 1 
1 1 1 1 1 1 1 1 1 

radius 1 207 double
0.005 0.005 0.005 0.005 0.005 0.005 0.005 0.005 0.005 
0.005 0.005 0.005 0.005 0.005 0.005 0.005 0.005 0.005 
0.005 0.005 0.005 0.005 0.005 0.005 0.005 0.005 0.005 
0.005 0.005 0.005 0.005 0.005 0.005 0.005 0.005 0.005 
0.005 0.005 0.005 0.005 0.005 0.005 0.005 0.005 0.005 
0.005 0.005 0.005 0.005 0.005 0.005 0.005 0.005 0.005 
0.005 0.005 0.005 0.005 0.005 0.005 0.005 0.005 0.005 
0.005 0.005 0.005 0.005 0.005 0.005 0.005 0.005 0.005 
0.005 0.005 0.005 0.005 0.005 0.005 0.005 0.005 0.005 
0.005 0.005 0.005 0.005 0.005 0.005 0.005 0.005 0.005 
0.005 0.005 0.005 0.005 0.005 0.005 0.005 0.005 0.005 
0.005 0.005 0.005 0.005 0.005 0.005 0.005 0.005 0.005 
0.005 0.005 0.005 0.005 0.005 0.005 0.005 0.005 0.005 
0.005 0.005 0.005 0.005 0.005 0.005 0.005 0.005 0.005 
0.005 0.005 0.005 0.005 0.005 0.005 0.005 0.005 0.005 
0.005 0.005 0.005 0.005 0.005 0.005 0.005 0.005 0.005 
0.005 0.005 0.005 0.005 0.005 0.005 0.005 0.005 0.005 
0.005 0.005 0.005 0.005 0.005 0.005 0.005 0.005 0.005 
0.005 0.005 0.005 0.005 0.005 0.005 0.005 0.005 0.005 
0.005 0.005 0.005 0.005 0.005 0.005 0.005 0.005 0.005 
0.005 0.005 0.005 0.005 0.005 0.005 0.005 0.005 0.005 
0.005 0.005 0.005 0.005 0.005 0.005 0.005 0.005 0.005 
0.005 0.005 0.005 0.005 0.005 0.005 0.005 0.005 0.005 

