# vtk DataFile Version 4.0
Generated by LIGGGHTS
ASCII
DATASET POLYDATA
POINTS 4242 float
-0.24442 0.00454328 -0.244785 -0.210625 0.00427887 -0.244755 -0.19877 0.00438047 -0.24501 
-0.182491 0.00450619 -0.244719 -0.163242 0.0104498 -0.244647 -0.144119 0.0045756 -0.244699 
-0.230438 0.00789148 -0.244914 -0.164833 0.014231 -0.0620007 -0.154193 0.00621587 -0.244518 
-0.219344 0.0120732 -0.23795 -0.205411 0.0110988 -0.235504 -0.191039 0.0100273 -0.242135 
-0.181915 0.0126428 -0.238922 -0.24145 0.00465093 -0.235175 -0.212468 0.00704155 -0.229456 
-0.197699 0.00439176 -0.232259 -0.186766 0.00434383 -0.233963 -0.164903 0.0046498 -0.23195 
-0.151356 0.00439534 -0.235106 -0.141858 0.00749033 -0.235443 -0.2248 0.00434323 -0.234797 
-0.171552 0.012172 -0.230614 -0.150287 0.014622 -0.235144 -0.134673 0.0143563 -0.236656 
-0.244997 0.00458632 -0.225806 -0.192665 0.00753124 -0.22423 -0.180348 0.00920741 -0.226803 
-0.156678 0.0103594 -0.226353 -0.14613 0.00987219 -0.225707 -0.136658 0.0063444 -0.227015 
-0.23028 0.00491636 -0.22639 -0.20433 0.0125466 -0.225341 -0.204278 0.00450895 -0.219179 
-0.185529 0.00435424 -0.218026 -0.173798 0.0115877 -0.218345 -0.244989 0.00459478 -0.215507 
-0.226858 0.0047556 -0.216249 -0.198068 0.00941919 -0.212662 -0.159964 0.00480203 -0.217848 
-0.150181 0.0147601 -0.216786 -0.138639 0.00992568 -0.2178 -0.244719 0.0147678 -0.214883 
-0.216949 0.00437171 -0.218476 -0.193419 0.0108576 -0.0188691 -0.235119 0.00462162 -0.209678 
-0.218156 0.00466212 -0.207871 -0.202242 0.00434755 -0.205167 -0.18188 0.00759292 -0.206867 
-0.168859 0.00439624 -0.207054 -0.146711 0.00446134 -0.206682 -0.209512 0.00839213 -0.211506 
-0.157594 0.00870712 -0.208729 -0.142587 0.0131891 -0.208913 -0.130644 0.011019 -0.211188 
-0.245001 0.00891888 -0.20582 -0.21092 0.00444518 -0.200227 -0.192133 0.00452804 -0.204823 
-0.160744 0.00440983 -0.199358 -0.136259 0.00884559 -0.2022 -0.227067 0.00757025 -0.204546 
-0.172916 0.0146549 -0.199914 -0.235472 0.00589486 -0.197583 -0.225754 0.00438154 -0.195158 
-0.197619 0.00443874 -0.196345 -0.186689 0.00449518 -0.196366 -0.17299 0.0046857 -0.197337 
-0.130687 0.00426371 -0.194998 -0.218094 0.0104827 -0.196812 -0.151496 0.00811387 -0.197728 
-0.244848 0.00483405 -0.190459 -0.179724 0.0043946 -0.189228 -0.160933 0.0138024 -0.190797 
-0.149843 0.0046235 -0.188355 -0.139977 0.0122531 -0.191558 -0.21022 0.00469998 -0.18483 
-0.244824 0.00448512 -0.180496 -0.232159 0.00435585 -0.185012 -0.22316 0.00691725 -0.181581 
-0.189215 0.00650244 -0.18676 -0.170404 0.00783113 -0.188239 -0.201421 0.00435331 -0.179525 
-0.191051 0.00436604 -0.177153 -0.177759 0.00445285 -0.17945 -0.159007 0.00794208 -0.182742 
-0.148133 0.00447284 -0.177381 -0.135855 0.00822367 -0.181469 -0.236353 0.00442254 -0.175195 
-0.220932 0.0047059 -0.171039 -0.166747 0.00429409 -0.174422 -0.211298 0.00445487 -0.173558 
-0.20084 0.00712646 -0.169967 -0.178742 0.0100471 -0.171246 -0.158095 0.00798096 -0.17124 
-0.142516 0.0121142 -0.174223 -0.190845 0.0141056 -0.104338 -0.168377 0.00434368 -0.164309 
-0.143077 0.00431619 -0.16787 -0.236216 0.00683369 -0.165452 -0.147074 0.0104682 -0.00296982 
-0.212728 0.0123509 -0.0719528 -0.140041 0.0128741 -0.163824 -0.244765 0.00454692 -0.160769 
-0.218313 0.00834908 -0.159908 -0.206935 0.0100185 -0.162616 -0.197493 0.0140974 -0.160434 
-0.179695 0.00829556 -0.161275 -0.152047 0.00565139 -0.163664 -0.230358 0.00442125 -0.156813 
-0.191604 0.00739172 -0.152141 -0.157325 0.00432516 -0.155291 -0.142594 0.00463587 -0.15624 
-0.16486 0.010517 -0.157302 -0.238146 0.0144584 -0.147329 -0.216346 0.00496858 -0.146935 
-0.172895 0.00871199 -0.148976 -0.150257 0.00892348 -0.147899 -0.135288 0.00480977 -0.147886 
-0.224537 0.00972266 -0.150635 -0.130333 0.0112725 -0.162223 -0.175249 0.0126595 -0.0622243 
-0.15921 0.0147675 -0.147534 -0.130184 0.0108194 -0.244941 -0.244822 0.0109968 -0.139806 
-0.19823 0.00440292 -0.143185 -0.181888 0.0114381 -0.145573 -0.166785 0.0112526 -0.141086 
-0.20871 0.00660143 -0.140581 -0.139755 0.0115776 -0.141188 -0.218282 0.00447915 -0.135326 
-0.188277 0.00739621 -0.137497 -0.148901 0.00922193 -0.136399 -0.13313 0.00450321 -0.137942 
-0.177201 0.00448323 -0.00142588 -0.176884 0.0142827 -0.137245 -0.19141 0.0136507 -0.0320249 
-0.237184 0.00434467 -0.130945 -0.205732 0.00470583 -0.131132 -0.177256 0.00503719 -0.128719 
-0.227201 0.00429458 -0.130566 -0.195962 0.00701612 -0.131079 -0.168368 0.010145 -0.130245 
-0.135855 0.00833606 -0.128779 -0.244874 0.00618568 -0.124681 -0.211835 0.00443426 -0.121989 
-0.201521 0.0044377 -0.120824 -0.168736 0.00815898 -0.118557 -0.156689 0.00824541 -0.123852 
-0.145782 0.00955505 -0.12688 -0.210456 0.00445683 -0.0047675 -0.219891 0.011838 -0.123079 
-0.186855 0.0075093 -0.126239 -0.235637 0.00587412 -0.119768 -0.190386 0.00669072 -0.116393 
-0.179484 0.00638459 -0.117888 -0.159391 0.00962352 -0.114321 -0.15008 0.0120496 -0.0211519 
-0.138675 0.0117037 -0.119598 -0.245008 0.00447373 -0.114706 -0.217822 0.00443363 -0.113415 
-0.207057 0.00469806 -0.112488 -0.167858 0.00435526 -0.10924 -0.148356 0.00557537 -0.1134 
-0.138862 0.00627953 -0.109782 -0.22673 0.00982954 -0.113674 -0.198354 0.00955779 -0.109936 
-0.244383 0.00432337 -0.103882 -0.232769 0.00836383 -0.103979 -0.22264 0.00430753 -0.104598 
-0.190881 0.00428265 -0.106104 -0.157553 0.00434127 -0.102384 -0.147977 0.00738238 -0.102973 
-0.21264 0.0106386 -0.106241 -0.181391 0.00642625 -0.108116 -0.175291 0.0116201 -0.0518556 
-0.217042 0.00458642 -0.0963348 -0.165348 0.00432809 -0.0960307 -0.140445 0.00429681 -0.0971759 
-0.20448 0.0132255 -0.0995536 -0.184235 0.00782556 -0.096823 -0.174579 0.00739802 -0.100916 
-0.196721 0.00592353 -0.0949439 -0.174254 0.00433286 -0.091203 -0.188408 0.0130409 -0.212516 
-0.229614 0.00944326 -0.0939714 -0.229146 0.0138941 -0.0382234 -0.239113 0.00750121 -0.0911832 
-0.22334 0.00442758 -0.0881187 -0.213435 0.00457913 -0.0868446 -0.197766 0.00824812 -0.0843193 
-0.185055 0.00598963 -0.0870114 -0.137287 0.00460406 -0.0874204 -0.212618 0.0140585 -0.090461 
-0.15355 0.00906034 -0.0104997 -0.156788 0.0121923 -0.0877493 -0.23509 0.00961946 -0.081328 
-0.186305 0.00465111 -0.0768553 -0.176349 0.00441175 -0.0796975 -0.147574 0.0149294 -0.0843436 
-0.244986 0.00654353 -0.0815683 -0.219001 0.010863 -0.0810765 -0.181177 0.0132012 -0.00759444 
-0.168407 0.0104177 -0.0841874 -0.218883 0.00446228 -0.0732667 -0.205129 0.00483447 -0.0785291 
-0.19667 0.0066147 -0.072723 -0.171224 0.0123393 -0.0747054 -0.160532 0.0112939 -0.0779022 
-0.140878 0.00940641 -0.0785956 -0.131112 0.00705419 -0.0750113 -0.190597 0.0126654 -0.0043294 
-0.235206 0.00485006 -0.0700796 -0.151132 0.0107672 -0.0726144 -0.245012 0.00677154 -0.0698801 
-0.226507 0.00974121 -0.0692545 -0.203514 0.0121455 -0.067957 -0.185445 0.00725887 -0.067146 
-0.225362 0.00820803 -0.00497016 -0.136928 0.013132 -0.0685505 -0.211643 0.00475322 -0.065547 
-0.194852 0.00457087 -0.0608686 -0.17587 0.00450014 -0.0682631 -0.163692 0.00537415 -0.0666498 
-0.146125 0.0102758 -0.0638123 -0.132427 0.00766357 -0.0593175 -0.244755 0.00442763 -0.0587393 
-0.222605 0.00446596 -0.0579568 -0.178907 0.00432325 -0.0575936 -0.16619 0.00586916 -0.0561776 
-0.155822 0.00426661 -0.0598953 -0.234862 0.00877097 -0.0608917 -0.21349 0.00815834 -0.056115 
-0.202889 0.00992195 -0.0581928 -0.187694 0.0091974 -0.055514 -0.237432 0.00501138 -0.051989 
-0.206576 0.00815923 -0.0488781 -0.196619 0.00742212 -0.0501527 -0.15947 0.0126765 -0.050743 
-0.142478 0.0104556 -0.0540804 -0.244994 0.00574607 -0.0454729 -0.216336 0.0067813 -0.0462281 
-0.174146 0.00458605 -0.0448876 -0.150268 0.0121613 -0.0467237 -0.138277 0.00580034 -0.0454255 
-0.226896 0.00613152 -0.0449984 -0.184264 0.00434556 -0.0467177 -0.236948 0.00669969 -0.0392272 
-0.219454 0.00681925 -0.0363539 -0.209318 0.00855761 -0.03927 -0.190294 0.00484772 -0.0378174 
-0.244715 0.0141479 -0.039141 -0.163021 0.012648 -0.00550403 -0.200136 0.0120561 -0.037226 
-0.178601 0.00433015 -0.0113928 -0.16436 0.0129531 -0.0417249 -0.155623 0.0042561 -0.0374656 
-0.13548 0.00696967 -0.034391 -0.245005 0.0050805 -0.0333989 -0.206684 0.00458464 -0.0303363 
-0.172344 0.010708 -0.0357865 -0.163192 0.00735449 -0.0310184 -0.182279 0.0107366 -0.0348503 
-0.235637 0.0078174 -0.0289901 -0.215132 0.00428492 -0.0249859 -0.191558 0.0044648 -0.0263526 
-0.171337 0.0101464 -0.0255004 -0.244995 0.0135566 -0.0276649 -0.225362 0.00670222 -0.0280224 
-0.19951 0.0106804 -0.0269827 -0.149455 0.00440993 -0.0293091 -0.13891 0.00603306 -0.0247619 
-0.244502 0.00443612 -0.0205606 -0.225414 0.00659721 -0.0179781 -0.159779 0.00432189 -0.0166335 
-0.236155 0.00916086 -0.0177529 -0.1994 0.00779841 -0.0094682 -0.206667 0.0122431 -0.0201926 
-0.182 0.00434448 -0.0228454 -0.214081 0.00860597 -0.0145516 -0.18874 0.00439922 -0.0128228 
-0.170316 0.0046632 -0.0169722 -0.145642 0.0043048 -0.0167757 -0.135036 0.00480344 -0.0156317 
-0.222747 0.0145924 -0.0125057 -0.141886 0.0124558 -0.0117083 -0.244845 0.0130834 -0.0105267 
-0.233411 0.0137541 -0.214235 -0.24501 0.00685184 -0.170815 -0.227387 0.0122872 -0.170465 
-0.198108 0.0137049 -0.139368 -0.204931 0.0130988 -0.124468 -0.150697 0.0134853 -0.181609 
-0.226019 0.0117626 -0.139529 -0.209039 0.0144167 -0.0810949 -0.211522 0.014508 -0.190518 
-0.211955 0.0132214 -0.117095 -0.239387 0.0133647 -0.24493 -0.194518 0.0139263 -0.232595 
-0.221797 0.0118719 -0.227923 -0.163756 0.0126154 -0.105431 -0.178704 0.0134732 -0.0833717 
-0.244903 0.0102198 -0.00046277 -0.137332 0.00458417 -0.000868676 -0.162512 0.0141719 -0.200913 
-0.214304 0.0137242 -0.134385 -0.243064 0.0136383 -0.11068 -0.23085 0.0150411 -0.223815 
-0.22309 0.0131182 -0.211854 -0.204664 0.0129207 -0.183463 -0.200723 0.0142166 -0.244985 
-0.196282 0.0131048 -0.191744 -0.170237 0.0130643 -0.0937987 -0.19232 0.0140933 -0.0645468 
-0.18881 0.0131655 -0.0456199 -0.232287 0.0136255 -0.0097007 -0.195166 0.0133301 -0.122169 
-0.244854 0.0145583 -0.0953613 -0.23562 0.0143695 -0.137055 -0.210688 0.0141827 -0.244988 
[...]
POINT_DATA 4242
FIELD FieldData 3
id 1 4242 int
1341 2638 3543 538 1792 3489 5 22 525 
1774 1783 3898 1313 3930 917 2202 451 3494 
3551 1477 445 2210 13 870 480 3187 12 
7 3631 4066 3472 1337 3484 453 484 471 
2178 2627 2217 2337 2693 2222 2218 142 3063 
586 3922 2606 3024 3190 2185 2216 454 3942 
1354 1350 1761 3025 919 475 531 922 481 
8 47 2176 1012 2628 3056 2184 1353 3902 
177 492 909 3495 3466 2209 590 596 1420 
36 535 477 1483 606 3035 3938 1413 62 
2607 907 3946 3624 3544 1778 465 3926 1904 
2599 2277 3504 2632 1796 1338 3461 3059 450 
2256 3077 1363 3511 54 1310 1775 3134 576 
3931 1918 1900 1793 4033 59 1348 2221 1321 
899 163 491 880 2636 1418 2179 488 3033 
1762 448 58 2195 926 1467 3113 2314 906 
10 614 912 2746 3542 53 1837 2644 1801 
1339 3163 594 868 2220 3532 2629 2764 2201 
581 3 3037 2200 1798 1362 877 485 52 
1352 602 1375 2649 1849 3985 1322 1781 2180 
3471 3189 1757 3943 38 1357 3071 872 1416 
905 2647 3120 1356 3490 2211 2699 1411 1788 
1342 3992 3147 961 1856 1838 3951 1884 55 
3159 3186 634 3076 2309 1343 1751 1795 3630 
1794 3932 483 1360 74 1784 2196 1760 1361 
3028 3506 1340 3892 3947 2645 35 452 467 
1759 1753 2756 1912 9 11 2183 3468 553 
1347 3521 3104 3032 473 493 1311 3635 1333 
3903 3510 50 875 2635 2236 176 2620 869 
889 2205 3108 1401 476 1316 490 902 2223 
3929 3054 206 89 873 883 3047 3928 3031 
1054 2353 3643 935 220 67 879 3465 468 
466 3893 3509 63 1408 3070 1044 1786 3483 
487 1358 1924 874 1908 1317 1312 3896 3034 
876 15 2597 486 2755 2219 1479 3044 2199 
900 3049 3502 3180 910 2177 3074 2698 3045 
2664 218 3202 1334 3949 3516 3069 914 2652 
175 923 3470 3158 77 2 2642 1379 3975 
1359 548 4026 3093 2650 3229 2667 80 2655 
893 2614 2637 3052 3236 3963 2659 1336 3578 
3968 3520 1470 505 512 3978 3110 2203 3512 
896 2204 3971 4073 4015 4071 34 33 2349 
3579 1813 3917 43 211 3213 3106 17 71 
1947 3973 3513 1827 2672 3145 3148 2250 91 
2675 2225 3918 3228 92 882 1528 931 1776 
2611 185 4094 1394 93 1826 187 470 1767 
60 2661 23 4104 499 1367 1331 947 1501 
948 29 1475 3094 1069 2374 3979 523 3957 
2669 64 3955 2233 2363 888 1833 1785 1424 
3907 3645 3515 1374 3522 449 1373 886 3518 
521 2609 3097 3910 1814 3088 84 1061 2229 
1436 3981 2615 1505 1830 2244 2677 549 3039 
463 3534 3648 2663 2241 3527 3479 2237 4077 
3524 944 18 1380 2253 1809 3517 3101 518 
1771 3535 2378 193 1382 1370 1063 1500 1879 
3111 3087 1764 1376 514 2347 2240 1810 940 
2612 2768 2230 2242 3657 1372 1862 3475 1087 
1511 2226 1377 2722 1389 520 984 3082 3531 
3478 1962 1429 460 2191 1383 3153 1824 1378 
930 3098 3109 929 2234 2188 2186 2783 955 
507 456 3539 32 27 2707 3916 1816 95 
952 3911 1808 1946 949 2231 458 3529 3972 
1821 2769 954 3964 4074 934 3961 1815 1770 
1768 24 219 1817 2238 506 1422 3528 3967 
1392 199 2613 884 72 2674 3976 1871 895 
500 2192 3481 1423 3080 2657 19 508 3913 
1766 3921 1386 567 3083 3569 1391 1395 1060 
2224 3966 69 457 1516 3915 3092 3953 2189 
942 1071 503 3085 3956 3980 927 3906 1930 
2232 3046 2608 68 945 3538 4111 2383 2227 
28 1934 1371 559 3230 3204 3537 215 90 
1062 3081 3141 2239 2673 953 1443 558 509 
2678 511 1327 2668 76 597 2325 1844 474 
1476 482 99 3498 1755 2215 40 1325 871 
3065 2640 2634 1344 1366 1750 44 2182 3950 
1777 3460 3029 4004 2379 904 1323 3038 3492 
2206 1842 489 4001 3927 3897 625 3055 39 
608 3053 1800 2736 1779 2625 3196 516 464 
2214 1345 2208 3919 3061 1003 1906 1320 2207 
16 901 925 3486 2622 1752 1351 444 911 
2263 1032 1019 1797 3057 3095 3464 3112 3545 
1758 2641 2212 2623 4050 37 2601 1791 2602 
2598 2648 4053 162 96 2631 921 915 169 
2197 3925 1445 3051 3079 898 3894 951 4034 
109 1031 3130 3487 966 3116 3068 1349 46 
2752 2633 3195 1883 1346 1756 3561 3467 3463 
2732 881 2639 3115 49 2328 913 1923 3060 
1355 1898 2198 2624 1318 3482 903 3944 45 
1010 1406 3459 3469 3936 3508 1 446 3078 
181 2621 3607 3935 479 510 462 1315 2600 
3026 878 182 1799 3503 2646 2334 1905 3036 
1852 3030 1911 3050 1787 2326 41 3491 3923 
3182 3904 2766 1365 3994 1950 4049 3485 2604 
3940 2181 3064 2643 1330 3982 3462 3899 933 
1807 3041 3958 1874 81 1332 1393 42 2336 
2723 2251 1802 1834 519 1895 3477 2656 916 
938 3924 4080 2626 2679 3231 4103 2342 1328 
498 936 3671 3969 1953 1397 2235 1381 3480 
4013 4076 1388 3530 501 2653 4024 1937 892 
4083 2665 4082 3914 2670 1822 4106 1763 194 
496 3965 190 950 21 515 86 3962 1823 
88 3474 2248 3912 1820 3099 3048 1819 3043 
126 2280 2254 3952 2654 3970 628 495 3144 
1811 643 1945 937 217 561 941 1384 3084 
2193 4091 224 2781 25 2676 956 2724 1369 
2804 1385 494 2243 637 20 981 1828 890 
3100 3523 3086 3570 2190 3533 459 2651 4017 
461 3476 1499 3103 2809 3091 1326 513 3920 
2247 3107 3644 30 2791 1390 216 2666 128 
2293 2252 94 939 3960 1963 1772 2658 1812 
1769 932 2713 2228 51 2356 3959 225 894 
1335 1520 1773 66 497 3090 209 85 2617 
2294 891 1329 517 75 2660 2610 887 1324 
3604 149 1803 1035 158 3654 604 607 4039 
589 469 3598 2042 3933 2762 526 2012 3022 
3552 447 3126 2466 2680 725 112 3622 3983 
1882 3891 3620 1922 3984 1461 3133 2271 1026 
1016 1040 3619 2730 3119 61 152 1319 2264 
4064 2329 974 1839 3986 3118 1486 3610 1412 
1015 2759 2754 3998 4070 3988 144 2301 1447 
4068 529 3760 1402 103 2315 3560 1480 3556 
2333 4041 2020 4173 2603 1028 2339 3298 3628 
2259 178 573 578 1896 3602 1014 3554 167 
3496 104 2687 1789 1749 740 245 1894 2697 
106 3937 4037 3895 2327 1846 977 1462 1398 
3990 3609 2749 48 610 4047 1754 183 2311 
1909 962 161 4036 973 612 1890 3623 3122 
731 4060 543 3591 2696 3129 3201 598 1919 
3171 2757 4031 1419 970 172 3996 3173 4002 
1024 1888 2272 3027 572 957 4054 186 1913 
574 1030 281 527 1474 3128 1018 4187 2398 
3596 2690 3548 1579 173 1782 2387 528 4043 
3215 1022 101 3121 4190 3310 2821 2307 2753 
3131 530 3592 1850 675 4061 2763 4045 3692 
924 1452 3181 2861 3615 2684 544 1484 2695 
3603 545 1853 1041 1886 1920 1843 1409 148 
969 584 1915 599 4038 2725 2803 2257 3608 
4052 3590 2274 116 1466 1314 1765 1456 2213 
3193 2260 4051 2726 1482 1058 3555 4062 2009 
3565 2310 1117 1840 2685 3308 1654 547 532 
1450 180 3595 3605 2343 1867 4172 1097 1013 
3168 504 1039 4048 1004 2332 145 3613 3690 
1043 3553 4007 3160 1430 1005 2255 1914 3621 
2889 110 1444 542 1029 239 1848 3191 3125 
555 3612 157 2396 3611 1903 1472 2701 963 
4 2306 4046 3172 1637 3549 159 2322 2727 
2344 2822 1459 308 4055 3993 1512 1078 4108 
3058 3175 3114 623 3233 2276 1400 4078 1790 
1471 3629 4035 3300 3167 184 1405 639 82 
3559 2702 3205 2748 2299 3733 192 346 2758 
2041 2354 2922 2761 1034 1455 2733 2694 960 
1453 2340 1841 295 1858 1595 2681 2331 1009 
537 2462 1027 150 3178 6 472 2324 170 
1451 1021 3174 156 4115 2269 1396 4169 2731 
1437 2740 146 885 151 585 3188 1048 1100 
3574 1473 2278 975 3493 3995 2319 195 3212 
2786 982 1407 1889 3217 3908 1495 1865 1526 
3639 4006 1210 1938 2292 1119 3650 223 3146 
1033 1188 2630 4009 1944 1861 3207 1052 550 
3235 133 630 2709 695 122 1025 1916 2286 
3540 2352 653 4014 1428 3716 120 1053 3241 
1565 3333 1067 2366 1932 3673 2775 3137 3224 
3662 2784 4008 4223 3222 2717 1426 757 136 
2706 100 3668 1868 2288 212 1942 2793 1926 
315 342 2371 2788 4216 1502 1878 4025 4150 
124 2719 2300 1646 1881 1951 4010 641 551 
636 1804 2721 1925 2364 1955 3663 4227 4139 
2384 1196 655 943 3203 1949 983 2298 1047 
4081 1876 2847 1506 3909 3227 3781 3040 1081 
3585 3646 321 3641 3773 2933 2291 2704 229 
563 1438 2703 1939 2355 1431 3157 616 3637 
340 1961 205 3571 570 618 1059 3636 1435 
3216 4212 140 3783 204 1497 4089 4100 2720 
2773 552 2056 2297 1194 3642 2245 651 1493 
3234 1057 569 1941 632 2777 1494 1927 2359 
78 1805 3135 645 997 2799 207 4086 1873 
2373 991 3139 1492 629 2772 568 2841 571 
502 3589 3238 1000 649 1055 2296 1051 3577 
1515 619 213 3140 3096 2086 2800 1954 3581 
946 1065 1079 3669 1046 1965 1002 994 1866 
137 617 2787 992 3102 1082 201 3136 1514 
2712 1863 4084 202 1956 564 1928 3586 31 
626 2279 556 3225 1491 1086 3149 621 1527 
1001 131 2794 4085 1959 1049 4098 1518 4075 
455 3588 615 79 2805 3576 778 1433 566 
65 1490 191 694 3536 3647 1524 648 1211 
1496 143 1940 4097 3634 2782 698 268 622 
4023 2616 1877 638 1960 4028 134 928 1509 
3519 203 1933 1869 4110 4027 2505 4101 1070 
2779 2808 3582 4136 1076 1504 3977 1489 4215 
554 1872 1050 3661 2375 1368 2187 1488 986 
2246 3632 640 562 3154 4107 2380 1425 2662 
3954 2386 3258 1432 1870 2415 3583 1948 3617 
3364 1991 3703 3240 123 620 83 2688 1084 
4112 3627 1417 2295 601 2470 1921 3599 1552 
2317 3164 155 1085 1109 3166 1403 3557 745 
978 964 579 2464 2308 4058 4000 3245 1449 
2738 2270 2302 2451 3473 3616 3547 2312 198 
4005 2729 2728 2750 3075 1410 2760 1448 2267 
979 3263 3183 179 1011 967 2261 524 306 
1917 1037 3728 4065 3761 2268 1510 3067 714 
3197 536 70 1907 1468 1460 107 3177 4057 
1023 3987 613 1845 1446 1899 3729 174 4030 
147 1891 1902 2744 3606 600 959 2305 2040 
3169 546 2686 588 1592 583 4003 1854 971 
108 2316 2275 968 1464 2258 4040 2605 575 
1163 3614 3686 105 3948 2265 1415 2691 996 
2320 102 3997 1897 2742 577 129 595 3939 
3124 4067 3558 154 603 1893 605 587 908 
918 1038 4171 2734 1971 2266 2407 972 539 
3248 592 541 2700 168 117 3127 3625 1887 
4198 2376 1857 1885 3198 4069 2341 1995 4042 
3618 3170 1851 2321 3062 976 2692 1017 196 
593 3709 1006 1454 533 3562 98 3185 652 
2771 3905 2682 2351 1036 1399 3750 3220 2002 
2348 3594 609 1064 3105 57 3192 3573 3567 
189 3653 1864 1936 1957 3218 654 1574 2381 
222 2290 4029 987 3672 3665 2362 4087 3784 
965 3194 3659 2369 2194 118 2419 1521 1619 
1387 1498 2780 3206 2287 4090 1517 3791 2358 
1573 1659 2368 1131 1836 3649 763 635 4079 
565 2481 1074 3242 130 228 113 3566 3221 
221 3208 642 988 2069 4020 2718 3711 3237 
1525 1080 1943 1935 153 2425 125 200 2006 
1831 3587 995 1966 3223 121 1442 1990 329 
1123 4018 208 1202 210 4011 127 214 2249 
2801 2710 3666 1441 2792 2785 3214 2074 1075 
748 1508 3526 647 1427 1073 2708 2711 3525 
2807 656 993 2282 1522 139 633 2281 3656 
2774 3575 2671 4092 3568 2776 3660 2377 3143 
2497 3142 3155 1825 4022 1077 985 1066 1434 
2795 980 998 3670 644 2501 2907 4102 522 
627 2285 2283 2802 3658 631 4109 2790 2714 
138 990 560 3708 3209 2350 1056 2705 4012 
3633 1832 3211 3156 227 135 2778 2824 2818 
1986 1267 386 244 3292 166 1910 3252 4282 
1855 674 2453 3294 1972 1147 2432 2403 710 
3564 2875 310 2013 705 3731 3600 4164 4188 
2814 282 3244 171 2745 3755 1174 248 3316 
1108 3423 2765 729 1981 2434 1706 670 2442 
247 2810 3184 663 4165 160 3794 2884 2143 
1835 2019 4177 2954 3328 1546 2313 2318 3281 
660 1007 3261 2862 1093 700 4121 3251 3313 
298 2037 3726 4197 611 2007 3684 3846 669 
2026 119 1632 3293 3322 4191 1169 1155 2827 
662 2819 3255 3730 3266 4192 2303 1969 2036 
2828 3330 232 3687 2747 4120 4166 2867 3677 
111 1598 1548 274 1585 659 3291 4122 2894 
1615 719 4118 832 738 3306 3407 3732 3737 
238 1982 1094 3676 1968 3597 3754 734 2405 
1605 2448 2441 720 243 3303 4125 1158 1976 
671 3165 1149 1596 1531 2452 3695 724 814 
3745 4056 3751 1138 1988 2456 2457 3762 739 
3727 1535 165 2404 1590 3326 1593 2880 672 
2735 1463 1168 2435 733 2866 3674 1539 1599 
2440 2433 4160 3253 2823 1146 4182 2338 2071 
1008 249 1142 2461 2811 2869 3756 1576 2262 
280 736 3845 1170 732 305 4181 3626 2015 
1088 1144 1478 4032 2878 2874 2990 580 1107 
301 2471 3743 2767 1641 3683 3838 277 2021 
3200 2028 2304 1711 540 3296 2741 2831 4185 
3758 278 1096 283 2394 1156 3723 2859 2027 
1150 4159 188 2877 3265 309 1538 821 4105 
290 2891 3260 1975 2813 2467 381 279 715 
2018 3682 4127 2751 2868 4312 722 337 716 
2860 3694 287 4287 251 2039 2323 2436 307 
2881 3325 3763 1101 1537 4296 3250 1551 1141 
4119 2045 4113 1414 2080 1901 3563 2008 1143 
4184 2437 404 236 2389 2890 300 1133 4174 
1165 4132 1102 1602 385 3772 2393 1208 2444 
3753 1457 4149 1617 275 4162 1481 2871 703 
1161 2447 534 3697 3162 1983 704 1547 4194 
4295 3721 958 246 3324 2022 1465 3413 1610 
291 707 3246 2883 4189 297 3375 3688 4158 
2873 2689 2743 2388 1542 2014 3254 727 661 
2024 3290 1973 3304 2445 1987 2408 1160 3379 
1113 1245 3353 1586 1440 255 4218 3259 2900 
3151 680 1609 1571 3680 4145 4228 2089 2914 
3287 2088 2854 3273 1167 1974 697 3792 3361 
3275 999 265 773 4099 1159 349 3280 4161 
3685 1612 3278 259 2507 2479 789 4234 2925 
1136 2064 4263 4231 1126 3336 4138 2413 2289 
332 2068 1563 3702 1127 582 3640 338 2079 
2463 761 2060 3999 1092 2382 1068 687 2916 
1192 2503 2930 2054 3256 2480 2160 4230 2502 
4206 2421 4203 691 2101 261 756 4044 646 
4225 2003 235 1558 2474 253 4170 2485 2915 
4200 1556 2504 760 335 2917 3343 2929 1124 
1994 2049 1487 3572 1650 2595 4237 2066 3719 
684 3349 350 3277 1647 765 4152 3270 4213 
686 776 380 3638 3341 443 242 1132 2910 
693 3271 4222 4156 781 2833 2109 2420 2416 
1653 3352 1195 3354 679 4146 4221 1130 2414 
3788 4202 3824 3706 4224 1212 1214 754 767 
320 4318 3362 1621 2935 2856 1190 2051 3338 
2428 372 3274 4325 3444 1129 2370 317 1651 
4236 1620 324 1289 1203 3698 1723 1644 2498 
2512 2918 3366 3365 318 3823 2532 3358 2513 
3447 696 3279 3710 3769 2913 3239 3356 2926 
1631 2067 3796 3283 2494 4021 3346 1575 3652 
2431 382 3284 2424 766 775 2796 1623 3713 
322 2372 3371 1215 2506 2078 2846 258 1572 
2427 2410 271 2511 3701 4144 4211 1652 3150 
779 3765 2478 4096 1952 2770 1640 1628 3288 
1115 2057 1513 326 328 4220 1658 4093 4199 
2928 3718 1958 1120 1560 1629 4155 3785 3580 
3369 1121 345 2053 1860 3779 3019 1503 2853 
3332 1639 1626 1559 1992 624 1507 3272 1072 
4153 3276 692 1727 2052 2912 699 344 2085 
3801 2361 1200 1648 1996 1176 2488 2568 3651 
197 3350 650 264 3342 3828 1439 1999 3286 
4229 4217 3152 1112 2346 226 1633 3267 2055 
2937 1638 4233 1421 2845 2058 1083 4143 755 
1197 1931 2882 1183 269 1603 3691 1674 1553 
771 3264 689 2455 557 3584 325 2050 267 
688 1677 681 862 712 3345 2514 3778 2938 
1967 2911 3282 270 1213 2484 355 3351 2000 
3707 3335 2852 2046 3798 762 1185 3712 256 
2083 1523 701 2886 1608 1205 3314 1588 3746 
3422 4196 3681 2043 4131 1582 2273 4180 2017 
4117 1534 3991 2044 4175 2896 1103 3323 3372 
2870 285 97 2010 233 3321 2817 723 1135 
1110 3601 367 1404 4186 1544 667 1577 708 
709 1604 3319 1140 2397 1581 3289 2816 2812 
3307 668 4163 2872 257 2826 1099 1978 231 
2879 2902 711 3679 784 3749 3302 4141 2335 
240 2473 3740 4195 4284 2683 1148 2367 4130 
2034 250 1469 2564 2035 665 289 2460 2084 
3176 1166 2468 1688 296 2542 3747 1892 3989 
1532 311 1530 1589 2472 3132 3247 2487 3759 
3301 3742 2459 1591 3117 1162 273 314 3744 
706 3689 1578 2465 2739 3593 299 3161 4167 
3546 3318 293 3693 3309 1536 2454 114 1929 
1222 3757 1485 3257 2892 2863 4183 730 2829 
1583 3249 1134 1090 2519 2446 3774 4126 1173 
115 3738 3295 3410 1616 2023 1718 1731 2402 
4129 164 713 3317 677 3311 1139 304 1847 
2330 4063 2888 1458 2096 1154 2876 2905 1529 
2399 1540 2991 726 3232 3199 2737 4176 1157 
2449 294 2098 2360 4059 3667 1095 2903 3795 
4205 777 1238 2458 1042 2508 728 3334 2923 
2062 2510 3821 3331 2164 272 3436 3451 1977 
2005 2850 2065 2061 1179 2715 1642 3243 2934 
3340 3806 1880 1286 3764 319 3655 3700 2798 
2899 2429 3836 2939 3138 2149 330 3348 2001 
2070 2927 2103 3219 254 3359 3720 1300 333 
1643 4226 2154 348 327 1859 2865 4316 1237 
2806 4148 2173 4072 334 1128 4235 2418 339 
316 2842 2844 2797 2076 2500 2839 132 303 
3226 769 774 4147 3771 3360 768 1566 331 
3714 352 2489 1568 2385 2716 1206 744 3664 
1181 343 4154 2908 764 3768 2357 2837 1562 
2906 1198 3799 2901 4210 4016 1201 1184 1567 
4088 690 1635 1649 743 1045 1177 2904 1625 
4157 2509 4019 3786 4151 1875 1627 752 266 
347 1998 2284 2365 3804 1199 1645 2345 1193 
1122 770 3704 141 3337 1656 3803 2789 1564 
3775 1114 989 678 3363 4137 2843 2059 1997 
4142 1655 1630 4095 3449 2919 1736 759 3819 
408 230 2970 3383 2144 3412 1696 2117 1673 
2048 4283 4135 1989 1255 836 2141 1265 2898 
4279 2562 3809 2949 4179 1276 2038 3725 2099 
3409 3839 2950 2522 2135 4277 1985 2565 394 
276 2543 2011 3739 1980 4178 3849 4247 3262 
3315 2122 2047 2945 702 2391 400 1266 2115 
395 4245 1543 1703 2968 3854 1550 4273 3424 
3378 1268 3832 2563 3829 1228 3843 811 2541 
237 358 1271 3405 2128 807 2544 4275 3748 
2033 3297 1218 4276 4168 2864 357 4292 3374 
3856 1226 364 2953 810 2942 829 3380 812 
2401 2138 411 392 826 2895 1611 3408 2974 
4299 1712 813 1697 2545 398 830 1153 3382 
2858 1252 2521 1172 1979 2524 2439 1715 3844 
3852 1275 3834 2133 1257 3734 2142 234 1672 
2438 3381 3384 286 292 2392 4128 3860 1253 
2830 1707 4240 2547 816 3376 2951 1217 2390 
1145 1668 1258 4302 1600 4244 1580 2131 2975 
822 2469 3416 1662 1248 1671 2140 2987 4297 
782 1669 390 827 666 2116 825 406 3807 
2518 2126 3368 2549 1665 2546 1272 3833 1693 
1700 1970 3840 1601 2092 1175 3018 241 2946 
3847 399 1243 1663 3427 2118 2129 3428 2940 
835 1984 3812 361 2943 1260 4124 2982 1098 
2820 1225 3835 359 4253 1699 3417 3857 1698 
2941 1613 2893 391 3415 2120 2557 1708 402 
1250 1164 2030 809 806 2815 2885 2517 3425 
4285 1277 1545 3399 3421 1091 3741 2986 4298 
2985 2526 2978 838 1709 403 2897 664 4280 
4301 2016 842 2114 3808 3724 4289 820 657 
4328 1283 1713 2981 2124 4261 840 1263 1229 
2097 2450 3881 4242 796 3848 369 1694 854 
1254 4114 1151 2967 828 4291 780 4193 3320 
1246 3441 3805 791 2979 721 4243 834 2948 
4241 2409 2406 2988 3420 1278 3403 3406 360 
1152 1171 2561 1714 3458 815 438 2952 1717 
1219 2167 1587 2851 3003 3395 3269 4238 2536 
2107 2100 1303 4309 2157 1614 2834 3355 2984 
2104 2992 4317 2087 1555 2958 2964 4272 819 
1704 2170 440 3766 2931 3815 3884 2168 1666 
1678 3394 1204 2165 1230 2955 431 4320 3789 
2994 3419 3443 848 4264 1748 4331 2528 849 
2483 2995 1554 2119 741 2587 2169 3021 850 
2921 3820 1557 435 859 3874 1569 1295 1683 
1725 3454 2106 1993 3885 1216 4259 1732 1741 
1241 2530 2579 1742 793 2838 3016 2909 4326 
377 427 2426 3717 2499 1236 2075 383 1682 
860 419 804 373 794 3386 370 4310 3357 
1207 2554 374 2534 1290 1738 847 3008 2491 
1679 3393 2490 1242 2162 354 853 4332 2533 
3446 4305 1180 2102 1680 3814 2430 3440 3015 
4271 434 2105 3429 864 2961 2004 2566 682 
4313 1294 2495 1719 3822 3012 379 1189 4256 
2172 801 416 1118 1743 3438 3715 3020 421 
1291 2111 263 2146 260 2476 2590 1297 750 
2417 430 2924 4266 3887 2584 2113 1636 1624 
863 4258 3868 1304 799 2492 1733 3776 839 
802 3780 4204 4319 2156 3826 423 4208 2163 
4303 3017 1306 425 1302 2571 3433 4209 3825 
2150 2960 2575 753 414 1737 3442 1296 3392 
2848 1239 4329 3705 1744 3876 3455 3388 4314 
2477 856 1721 841 2411 1111 417 3431 2567 
2155 3011 4262 3878 1244 2583 437 844 2159 
2475 797 800 3004 1729 2166 3434 3790 3886 
3007 1299 3456 376 432 3872 3339 426 1730 
3445 3367 3879 2529 378 3453 4260 1634 418 
2993 2171 2997 3390 441 758 1570 3777 1734 
3397 3391 3013 3863 4239 683 3880 1676 1726 
2496 3699 837 3787 323 2574 1233 1240 3800 
742 1235 1288 3770 2976 3866 3861 2147 1301 
433 1685 817 4232 2569 2592 1221 772 3864 
2932 3437 2148 685 1657 3802 3006 1606 1584 
401 1661 1104 4294 1660 2029 1541 1256 1597 
3678 795 384 3329 2523 2972 3299 4116 1670 
1667 2175 3850 1269 4133 3373 2947 658 1695 
2983 718 2963 4254 2031 2139 1259 3735 2548 
3841 3858 407 2956 388 4250 4274 2094 2977 
3865 2552 2556 2550 4134 3404 2400 2025 3811 
1224 3402 2134 1137 2123 368 831 3842 2145 
2553 1220 2095 1106 737 3855 1705 2527 788 
2539 4246 3305 2127 2825 1261 3426 4251 3810 
4249 2132 3851 2125 4293 1710 2969 3859 363 
2966 786 3400 2971 4255 2973 405 313 3377 
302 1720 1227 1716 3813 3675 2537 833 3312 
1689 783 2093 4281 2887 1262 2121 2944 3736 
387 2137 2531 3327 1089 1594 284 787 785 
1105 1533 1664 2130 717 790 1691 2136 2443 
2996 389 3831 409 824 1270 2032 2090 2520 
1607 288 2855 3752 252 1692 1549 1701 2559 
3837 3418 3853 2515 4278 2832 1223 393 2560 
2558 4288 1264 3873 397 365 2980 1251 412 
1702 356 2989 1690 2965 3722 1249 673 410 
2152 396 2423 362 1739 2412 3344 3347 1280 
1684 823 4269 798 1281 341 792 676 375 
3385 4290 1305 4308 866 4324 3414 1681 4286 
4123 336 1622 1308 1274 2151 2174 3782 2395 
855 1561 3268 1116 4219 867 3890 3432 2077 