# vtk DataFile Version 4.0
Generated by LIGGGHTS
ASCII
DATASET POLYDATA
POINTS 344 float
-0.160861 -0.100126 -0.234632 -0.244986 0.00389045 -0.244973 -0.235687 0.00786415 -0.245023 
-0.224439 0.00238714 -0.245086 -0.214538 0.00247274 -0.244944 -0.204644 0.00243255 -0.245035 
-0.194785 0.00293494 -0.244442 -0.213047 0.0149088 -0.244805 -0.245009 0.00456973 -0.234999 
-0.23076 0.00349353 -0.237554 -0.207881 0.0108455 -0.237318 -0.198018 0.0122693 -0.236591 
-0.218214 0.00845239 -0.237852 -0.244926 0.00237579 -0.0511676 -0.222826 0.013807 -0.245074 
-0.24393 0.00246174 -0.0621604 -0.193685 0.00248926 -0.234203 -0.224904 0.0146089 -0.210196 
-0.210749 0.00634509 -0.219747 -0.170196 0.00244387 -0.0124692 -0.245044 0.00372166 -0.225042 
-0.236193 0.00241718 -0.229349 -0.223019 0.00243113 -0.231375 -0.213082 0.00254302 -0.231143 
-0.216418 0.011405 -0.227986 -0.203611 0.00242469 -0.234145 -0.195913 0.00246168 -0.224129 
-0.23722 0.00244918 -0.218505 -0.228486 0.00359548 -0.22315 -0.243308 0.0122703 -0.0713684 
-0.226396 0.0120938 -0.227965 -0.203831 0.00246174 -0.199054 -0.244865 0.00246926 -0.0727043 
-0.245028 0.00244919 -0.212308 -0.219773 0.00244107 -0.218196 -0.183133 0.0121645 -0.245025 
-0.236445 0.0110246 -0.224302 -0.236211 0.00246393 -0.207606 -0.184955 0.00242793 -0.243375 
-0.192136 0.0106917 -0.22867 -0.245003 0.0117735 -0.21917 -0.231911 0.0109818 -0.204053 
-0.229116 0.00620743 -0.213554 -0.203422 0.00919214 -0.225863 -0.245009 0.0124144 -0.209231 
-0.226315 0.0130077 -0.195793 -0.219111 0.00246174 -0.137763 -0.244979 0.0139356 -0.244911 
-0.235348 0.0137517 -0.190707 -0.215111 0.0024618 -0.197849 -0.207685 0.0117674 -0.193908 
-0.222788 0.00439649 -0.0536193 -0.244786 0.00492132 -0.202625 -0.242552 0.00246174 -0.0249501 
-0.230356 0.00947035 -0.0700464 -0.240809 0.0024582 -0.193791 -0.222508 0.00246169 -0.190972 
-0.230997 0.00271343 -0.198502 -0.232593 0.00248103 -0.188077 -0.210063 0.00246176 -0.188949 
-0.218211 0.0129878 -0.203023 -0.245004 0.00959873 -0.188193 -0.188727 0.00594335 -0.217272 
-0.166321 0.00305063 -0.227585 -0.244659 0.0055957 -0.17364 -0.240902 0.00254136 -0.182422 
-0.167252 0.0032424 -0.00294079 -0.194397 0.00246174 -0.129377 -0.216689 0.00328298 -0.181471 
-0.207799 0.00888273 -0.0283704 -0.181013 0.00246174 -0.037225 -0.234034 0.00246174 -0.0789719 
-0.226413 0.0042919 -0.179433 -0.235461 0.00245885 -0.0549392 -0.223461 0.0113016 -0.186056 
-0.244371 0.00246126 -0.10622 -0.183431 0.00549321 -0.154052 -0.180256 0.0125111 -0.233067 
-0.239945 0.00267424 -0.162329 -0.244982 0.0073665 -0.0861023 -0.229108 0.0132791 -0.237461 
-0.197895 0.0101922 -0.193211 -0.184935 0.00334536 -0.229571 -0.165894 0.00416032 -0.245126 
-0.175156 0.0025679 -0.241832 -0.167546 0.0148253 -0.229301 -0.175299 0.00243552 -0.231874 
-0.239179 0.0124523 -0.236889 -0.244999 0.0140236 -0.228873 -0.200468 0.0024099 -0.172494 
-0.176483 0.00250625 -0.143546 -0.238805 0.00245185 0.0138117 -0.244907 0.00965193 0.0181643 
-0.232249 0.00242048 0.228364 -0.237829 0.00246119 0.0238512 -0.201282 0.00248498 0.24172 
-0.231782 0.0107362 0.193734 -0.231413 0.00603203 0.0310789 -0.229747 0.00246174 0.24239 
-0.229241 0.0142635 0.0916765 -0.212179 0.010877 0.14442 -0.244824 0.00245803 0.0967672 
-0.24121 0.014067 0.101188 -0.178731 0.00249394 0.230371 -0.244858 0.00856525 0.199663 
-0.225755 -0.0878026 0.240423 -0.244801 0.00246174 0.159574 -0.242749 0.00320328 0.00465515 
-0.218254 0.0196637 -0.218069 -0.230832 0.163432 -0.046439 -0.216415 0.0351355 -0.245619 
-0.24044 0.0262627 -0.184225 -0.1971 0.0392506 -0.173853 -0.228376 0.0889675 -0.0765258 
-0.250184 0.0525662 -0.0325351 -0.215628 0.0258207 -0.151181 -0.234983 0.0215739 -0.212344 
-0.176091 0.0195368 -0.226484 -0.188203 0.0308449 -0.203123 -0.230125 0.0290074 -0.233714 
-0.178405 0.0433988 -0.230199 -0.233444 0.0180791 -0.245024 -0.23993 0.0165774 -0.1808 
-0.219305 0.0238332 -0.244994 -0.191827 0.0155672 -0.212998 -0.240996 0.0246175 -0.245001 
-0.238804 0.0350186 -0.248726 -0.226579 0.0358481 -0.251091 -0.222126 0.072623 -0.255081 
-0.246749 0.034994 -0.255146 -0.185602 0.0253396 -0.243596 -0.216784 0.0270102 -0.207316 
-0.245084 0.0195609 -0.202201 -0.245107 0.0773255 -0.221091 -0.244971 0.153659 -0.223235 
-0.239517 0.121396 -0.254627 -0.231102 0.0221077 -0.187182 -0.210196 0.0264391 -0.238705 
-0.2212 0.105448 -0.206821 -0.225036 0.0351914 -0.240424 -0.223881 0.0356302 -0.211419 
-0.201795 0.110304 -0.236819 -0.199 0.0357982 -0.242753 -0.2243 0.0519542 -0.246445 
-0.217397 0.0549885 -0.253567 -0.245447 0.0336856 -0.147927 -0.247655 0.0344045 -0.241288 
-0.230659 0.0276667 -0.245004 -0.243298 0.0670122 -0.257472 -0.196413 0.147462 -0.172096 
-0.242334 0.0250019 -0.111877 -0.244994 0.0219196 -0.212326 -0.223236 0.06882 -0.160244 
-0.225275 0.0519943 -0.195942 -0.244984 0.0205552 -0.236533 -0.244385 0.0215756 -0.192405 
-0.214982 0.0471495 -0.245045 -0.231358 0.0681668 -0.251282 -0.242197 0.0441433 -0.244521 
-0.241991 0.037364 -0.207414 -0.247777 0.0707216 -0.231015 -0.231044 0.118769 -0.245327 
-0.16339 0.117453 -0.148972 -0.232862 0.0721109 -0.201123 -0.197906 0.102748 -0.172468 
-0.242896 0.102719 -0.178594 -0.244608 0.0428303 -0.125916 -0.208082 0.0181791 -0.227743 
-0.234145 0.0186518 -0.23079 -0.23242 0.0422735 -0.245535 -0.237433 0.0945994 -0.256623 
-0.238081 0.0612677 -0.248619 -0.203338 0.0164909 -0.244951 -0.208167 0.0553121 -0.258139 
-0.216458 0.0459648 -0.212577 -0.244735 0.0202379 -0.0493089 -0.228721 0.0316509 -0.201677 
-0.223494 0.0213969 -0.201579 -0.249286 0.0874166 -0.141239 -0.227783 0.0170148 -0.219427 
-0.238355 0.0320338 -0.238507 -0.233895 0.0734177 -0.241263 -0.200397 0.0280993 -0.223164 
-0.244982 0.0180388 -0.0797851 -0.243728 0.0281619 -0.138962 -0.211551 0.116417 -0.220199 
-0.235533 0.0233954 -0.222146 -0.236166 0.0333618 -0.22174 -0.221072 0.0670861 -0.246188 
-0.206641 0.0645216 -0.238978 -0.245023 0.0305452 -0.231089 -0.230866 0.0497013 -0.237886 
-0.221096 0.0453859 -0.236764 -0.24074 0.0557243 -0.240745 -0.258874 0.0470919 -0.243409 
-0.252946 0.151389 -0.237426 -0.223828 0.0216979 -0.236324 -0.259829 0.0748758 -0.212526 
-0.220013 0.0235144 -0.227298 -0.23547 0.0507961 -0.201165 -0.218453 0.0307083 -0.234118 
-0.245025 0.0264347 -0.221946 -0.226036 0.0463073 -0.227958 -0.241295 0.0478371 -0.234549 
-0.214531 0.018109 -0.235417 -0.236932 0.0517458 -0.214749 -0.222558 0.106028 -0.237377 
-0.220426 0.0241947 -0.191341 -0.174935 0.114944 -0.206158 -0.233594 0.0403362 -0.235586 
-0.244793 0.0447997 -0.0513301 -0.246587 0.0395929 -0.226857 -0.254641 0.0453453 -0.228199 
-0.235047 0.0538053 -0.229076 -0.255625 0.0512998 -0.256073 -0.22146 0.0555068 -0.21141 
-0.172561 0.0423339 -0.257017 -0.216412 0.0753149 -0.200111 -0.227922 0.0595045 -0.204603 
-0.227755 0.0361434 -0.227083 -0.234027 0.018914 -0.0233204 -0.22639 0.0260774 -0.209929 
-0.216574 0.0647648 -0.237164 -0.245533 0.0580797 -0.226846 -0.225371 0.0699549 -0.231819 
-0.247782 0.0959328 -0.255885 -0.190401 0.0499182 -0.20055 -0.195538 0.0222051 -0.242916 
-0.244916 0.0357656 -0.217547 -0.24562 0.0694286 -0.246115 -0.230564 0.0602882 -0.221726 
-0.257803 0.067766 -0.240867 -0.247068 0.0839683 -0.258113 -0.244068 0.100767 -0.235795 
-0.225308 0.022036 -0.0793243 -0.234808 0.109805 -0.249444 -0.227271 0.0463473 -0.208633 
-0.227046 0.121828 -0.180838 -0.210627 0.0478589 -0.235941 -0.230263 0.040366 -0.217733 
-0.231366 0.0771212 -0.219826 -0.225149 0.0770701 -0.246177 -0.244785 0.0457139 -0.216479 
-0.227281 0.0503186 -0.218765 -0.25216 0.0526433 -0.221277 -0.253069 0.10019 -0.247944 
-0.238983 0.0273352 -0.201293 -0.216942 0.0151337 -0.193422 -0.236716 0.0154134 -0.150231 
-0.237527 0.140695 0.18692 -0.23337 0.030011 0.041278 -0.238913 0.0519768 0.03677 
-0.16639 0.0612456 0.191723 -0.238742 0.0638387 0.194012 -0.224904 0.0846855 0.138416 
-0.254312 0.15472 0.253368 -0.204673 0.025555 0.0593928 -0.239918 0.0713715 0.0594444 
-0.233151 0.0406383 0.0375088 -0.240968 0.0280722 0.1798 -0.210548 0.124471 0.096002 
-0.243864 0.0202684 0.0897978 -0.226463 0.0255357 0.192104 -0.235593 0.0336565 0.246841 
-0.187532 0.212528 0.0901133 -0.18654 0.207934 0.13514 -0.126406 0.00249392 -0.0996428 
-0.0931623 0.014739 -0.244807 -0.114586 0.00249392 -0.122381 -0.120656 0.00797554 -0.244112 
-0.146163 0.00249392 -0.124882 -0.0535052 0.00715962 -0.242091 -0.093037 0.0121613 -0.101785 
-0.0590224 0.00246174 -0.162641 -0.151256 0.00249392 0.112886 -0.113597 0.00270908 0.241016 
-0.11936 0.00241126 0.232894 -0.0750577 0.0375399 -0.180271 -0.0822302 0.182916 -0.221984 
-0.0702608 0.0702963 -0.123872 -0.102242 0.0756538 -0.242852 -0.136751 0.0223903 -0.24387 
-0.149434 0.0262496 -0.239638 -0.116851 0.0658959 -0.066754 -0.0802928 0.140243 -0.237641 
-0.0683111 0.123181 -0.180259 -0.107417 0.201368 -0.241818 -0.0892761 0.0822185 -0.240347 
-0.150651 0.0777032 -0.199633 -0.137611 0.0634725 -0.181787 -0.0793571 0.0404485 -0.244141 
-0.0742879 0.017439 -0.227307 -0.120031 0.196202 -0.0906163 -0.136198 0.127135 0.0305776 
-0.145333 0.167569 0.240388 -0.146698 0.0839263 0.172801 0.0438667 0.00307948 -0.198202 
-0.025069 0.00246174 -0.232713 0.0222972 -0.156313 -0.0576472 -0.0203493 0.00249392 -0.147115 
-0.0445545 0.00882558 -0.205331 -0.00269673 0.00249392 0.139037 0.0228966 0.0999332 -0.146833 
-0.0443483 0.157884 -0.208682 -0.0373583 0.0684044 -0.237569 -0.025795 0.07795 -0.225469 
0.0104905 0.0167385 -0.151517 0.114116 0.00334156 -0.243818 0.13183 0.0024911 -0.243256 
0.0840157 0.00246174 -0.147482 0.0559775 0.0100597 -0.203563 0.0574584 0.00808988 -0.238496 
0.0655648 -0.0942123 -0.200961 0.142292 0.0030449 -0.0487833 0.0717987 0.00246126 0.165331 
0.0777669 0.00304719 0.0853529 0.151475 0.00249392 0.114404 0.116327 0.00306411 0.0508157 
0.0713055 0.142963 -0.217306 0.113232 0.107501 -0.182871 0.150988 0.0435183 -0.177527 
0.0745599 0.0728315 -0.165702 0.0816265 0.0737591 -0.0164394 0.129976 0.0156795 0.165465 
0.231393 0.00249392 -0.159337 0.178137 0.00246236 -0.240472 0.242533 0.00246172 -0.240513 
0.198499 0.014184 -0.240398 0.208094 0.00246176 -0.235237 0.227843 0.00238634 -0.218767 
0.208061 0.00470768 0.19434 0.236667 0.135589 -0.18551 0.243083 0.037345 -0.244626 
0.258049 0.106749 -0.252821 0.228948 0.0416245 -0.0897486 0.23463 0.175246 -0.226333 
0.218197 0.030995 -0.219792 0.200106 0.0229905 -0.223155 0.241477 0.0184233 -0.22937 
0.23101 0.0221414 -0.244916 0.161084 0.08059 0.0576427 0.180642 0.118087 0.165959 
0.232761 0.0477728 0.132211 0.165945 0.190272 0.253163 
VERTICES 344 688
1 0 
1 1 
1 2 
1 3 
1 4 
1 5 
1 6 
1 7 
1 8 
1 9 
1 10 
1 11 
1 12 
1 13 
1 14 
1 15 
1 16 
1 17 
1 18 
1 19 
1 20 
1 21 
1 22 
1 23 
1 24 
1 25 
1 26 
1 27 
1 28 
1 29 
1 30 
1 31 
1 32 
1 33 
1 34 
1 35 
1 36 
1 37 
1 38 
1 39 
1 40 
1 41 
1 42 
1 43 
1 44 
1 45 
1 46 
1 47 
1 48 
1 49 
1 50 
1 51 
1 52 
1 53 
1 54 
1 55 
1 56 
1 57 
1 58 
1 59 
1 60 
1 61 
1 62 
1 63 
1 64 
1 65 
1 66 
1 67 
1 68 
1 69 
1 70 
1 71 
1 72 
1 73 
1 74 
1 75 
1 76 
1 77 
1 78 
1 79 
1 80 
1 81 
1 82 
1 83 
1 84 
1 85 
1 86 
1 87 
1 88 
1 89 
1 90 
1 91 
1 92 
1 93 
1 94 
1 95 
1 96 
1 97 
1 98 
1 99 
1 100 
1 101 
1 102 
1 103 
1 104 
1 105 
1 106 
1 107 
1 108 
1 109 
1 110 
1 111 
1 112 
1 113 
1 114 
1 115 
1 116 
1 117 
1 118 
1 119 
1 120 
1 121 
1 122 
1 123 
1 124 
1 125 
1 126 
1 127 
1 128 
1 129 
1 130 
1 131 
1 132 
1 133 
1 134 
1 135 
1 136 
1 137 
1 138 
1 139 
1 140 
1 141 
1 142 
1 143 
1 144 
1 145 
1 146 
1 147 
1 148 
1 149 
1 150 
1 151 
1 152 
1 153 
1 154 
1 155 
1 156 
1 157 
1 158 
1 159 
1 160 
1 161 
1 162 
1 163 
1 164 
1 165 
1 166 
1 167 
1 168 
1 169 
1 170 
1 171 
1 172 
1 173 
1 174 
1 175 
1 176 
1 177 
1 178 
1 179 
1 180 
1 181 
1 182 
1 183 
1 184 
1 185 
1 186 
1 187 
1 188 
1 189 
1 190 
1 191 
1 192 
1 193 
1 194 
1 195 
1 196 
1 197 
1 198 
1 199 
1 200 
1 201 
1 202 
1 203 
1 204 
1 205 
1 206 
1 207 
1 208 
1 209 
1 210 
1 211 
1 212 
1 213 
1 214 
1 215 
1 216 
1 217 
1 218 
1 219 
1 220 
1 221 
1 222 
1 223 
1 224 
1 225 
1 226 
1 227 
1 228 
1 229 
1 230 
1 231 
1 232 
1 233 
1 234 
1 235 
1 236 
1 237 
1 238 
1 239 
1 240 
1 241 
1 242 
1 243 
1 244 
1 245 
1 246 
1 247 
1 248 
1 249 
1 250 
1 251 
1 252 
1 253 
1 254 
1 255 
1 256 
1 257 
1 258 
1 259 
1 260 
1 261 
1 262 
1 263 
1 264 
1 265 
1 266 
1 267 
1 268 
1 269 
1 270 
1 271 
1 272 
1 273 
1 274 
1 275 
1 276 
1 277 
1 278 
1 279 
1 280 
1 281 
1 282 
1 283 
1 284 
1 285 
1 286 
1 287 
1 288 
1 289 
1 290 
1 291 
1 292 
1 293 
1 294 
1 295 
1 296 
1 297 
1 298 
1 299 
1 300 
1 301 
1 302 
1 303 
1 304 
1 305 
1 306 
1 307 
1 308 
1 309 
1 310 
1 311 
1 312 
1 313 
1 314 
1 315 
1 316 
1 317 
1 318 
1 319 
1 320 
1 321 
1 322 
1 323 
1 324 
1 325 
1 326 
1 327 
1 328 
1 329 
1 330 
1 331 
1 332 
1 333 
1 334 
1 335 
1 336 
1 337 
1 338 
1 339 
1 340 
1 341 
1 342 
1 343 

POINT_DATA 344
FIELD FieldData 3
id 1 344 int
547 3538 1269 6357 3341 6347 5001 5883 1027 
371 2221 1555 56 2053 3028 7017 1248 396 
3003 1496 1048 603 4546 187 1011 1368 3400 
1064 1304 1838 1247 8287 1817 2804 1949 2118 
4561 3629 8119 1217 7074 47 5831 4136 3738 
3374 1124 2186 1833 2338 378 1180 1820 4504 
1785 1869 3365 4830 262 791 4135 5380 7100 
8326 2195 3192 3444 3270 8673 4496 7117 3539 
889 4478 2623 7899 2449 386 2428 2371 8483 
4268 2100 1478 3043 1458 2152 1013 4783 4318 
2494 1154 1836 6251 986 249 3327 1379 258 
2078 2917 1874 5088 1320 4648 1378 456 930 
3674 3869 5788 1483 281 2708 968 618 3566 
2533 5887 17 812 1957 264 1383 2361 2346 
4558 3188 3227 4307 1670 3392 1118 2625 2521 
1266 6454 2373 2537 1788 1675 852 6975 2945 
3025 1211 169 5794 1093 71 2171 6159 481 
4296 7911 3628 3319 478 6007 5053 2004 6915 
3511 665 502 949 131 2151 208 1811 6932 
4280 3021 2281 6484 488 1959 2507 2041 2301 
135 878 1376 3282 1930 4341 921 1768 1065 
199 1984 141 2687 3057 173 1609 6741 3250 
2869 2009 3379 3545 27 2474 563 3746 775 
3107 1641 3552 92 6149 5268 283 2669 2938 
612 4508 2246 3228 3760 95 2467 7018 2208 
2886 3817 180 3567 1561 7705 225 3111 5817 
1793 49 4183 1249 4164 3832 824 4868 910 
1186 1056 1165 5543 97 1444 4220 2230 284 
1146 1356 1621 3633 515 498 4486 4502 945 
1834 4356 1342 2335 682 4661 5071 2063 1503 
4951 1577 1214 1439 305 4207 5126 3503 1898 
2716 1636 575 4482 113 6907 520 144 4972 
2226 4948 1716 662 5164 1859 3502 301 692 
814 2204 3147 7818 2748 5737 1047 2551 1625 
239 2606 2319 8696 787 7815 1286 5244 4362 
1142 1172 553 2574 309 7842 3436 755 293 
5920 4317 2559 288 809 764 6239 4273 1686 
3408 1585 3234 6133 1545 3472 7614 5184 1669 
88 277 
type 1 344 int
1 1 1 1 1 1 1 1 1 
1 1 1 1 1 1 1 1 1 
1 1 1 1 1 1 1 1 1 
1 1 1 1 1 1 1 1 1 
1 1 1 1 1 1 1 1 1 
1 1 1 1 1 1 1 1 1 
1 1 1 1 1 1 1 1 1 
1 1 1 1 1 1 1 1 1 
1 1 1 1 1 1 1 1 1 
1 1 1 1 1 1 1 1 1 
1 1 1 1 1 1 1 1 1 
1 1 1 1 1 1 1 1 1 
1 1 1 1 1 1 1 1 1 
1 1 1 1 1 1 1 1 1 
1 1 1 1 1 1 1 1 1 
1 1 1 1 1 1 1 1 1 
1 1 1 1 1 1 1 1 1 
1 1 1 1 1 1 1 1 1 
1 1 1 1 1 1 1 1 1 
1 1 1 1 1 1 1 1 1 
1 1 1 1 1 1 1 1 1 
1 1 1 1 1 1 1 1 1 
1 1 1 1 1 1 1 1 1 
1 1 1 1 1 1 1 1 1 
1 1 1 1 1 1 1 1 1 
1 1 1 1 1 1 1 1 1 
1 1 1 1 1 1 1 1 1 
1 1 1 1 1 1 1 1 1 
1 1 1 1 1 1 1 1 1 
1 1 1 1 1 1 1 1 1 
1 1 1 1 1 1 1 1 1 
1 1 1 1 1 1 1 1 1 
1 1 1 1 1 1 1 1 1 
1 1 1 1 1 1 1 1 1 
1 1 1 1 1 1 1 1 1 
1 1 1 1 1 1 1 1 1 
1 1 1 1 1 1 1 1 1 
1 1 1 1 1 1 1 1 1 
1 1 
radius 1 344 double
0.005 0.005 0.005 0.005 0.005 0.005 0.005 0.005 0.005 
0.005 0.005 0.005 0.005 0.005 0.005 0.005 0.005 0.005 
0.005 0.005 0.005 0.005 0.005 0.005 0.005 0.005 0.005 
0.005 0.005 0.005 0.005 0.005 0.005 0.005 0.005 0.005 
0.005 0.005 0.005 0.005 0.005 0.005 0.005 0.005 0.005 
0.005 0.005 0.005 0.005 0.005 0.005 0.005 0.005 0.005 
0.005 0.005 0.005 0.005 0.005 0.005 0.005 0.005 0.005 
0.005 0.005 0.005 0.005 0.005 0.005 0.005 0.005 0.005 
0.005 0.005 0.005 0.005 0.005 0.005 0.005 0.005 0.005 
0.005 0.005 0.005 0.005 0.005 0.005 0.005 0.005 0.005 
0.005 0.005 0.005 0.005 0.005 0.005 0.005 0.005 0.005 
0.005 0.005 0.005 0.005 0.005 0.005 0.005 0.005 0.005 
0.005 0.005 0.005 0.005 0.005 0.005 0.005 0.005 0.005 
0.005 0.005 0.005 0.005 0.005 0.005 0.005 0.005 0.005 
0.005 0.005 0.005 0.005 0.005 0.005 0.005 0.005 0.005 
0.005 0.005 0.005 0.005 0.005 0.005 0.005 0.005 0.005 
0.005 0.005 0.005 0.005 0.005 0.005 0.005 0.005 0.005 
0.005 0.005 0.005 0.005 0.005 0.005 0.005 0.005 0.005 
0.005 0.005 0.005 0.005 0.005 0.005 0.005 0.005 0.005 
0.005 0.005 0.005 0.005 0.005 0.005 0.005 0.005 0.005 
0.005 0.005 0.005 0.005 0.005 0.005 0.005 0.005 0.005 
0.005 0.005 0.005 0.005 0.005 0.005 0.005 0.005 0.005 
0.005 0.005 0.005 0.005 0.005 0.005 0.005 0.005 0.005 
0.005 0.005 0.005 0.005 0.005 0.005 0.005 0.005 0.005 
0.005 0.005 0.005 0.005 0.005 0.005 0.005 0.005 0.005 
0.005 0.005 0.005 0.005 0.005 0.005 0.005 0.005 0.005 
0.005 0.005 0.005 0.005 0.005 0.005 0.005 0.005 0.005 
0.005 0.005 0.005 0.005 0.005 0.005 0.005 0.005 0.005 
0.005 0.005 0.005 0.005 0.005 0.005 0.005 0.005 0.005 
0.005 0.005 0.005 0.005 0.005 0.005 0.005 0.005 0.005 
0.005 0.005 0.005 0.005 0.005 0.005 0.005 0.005 0.005 
0.005 0.005 0.005 0.005 0.005 0.005 0.005 0.005 0.005 
0.005 0.005 0.005 0.005 0.005 0.005 0.005 0.005 0.005 
0.005 0.005 0.005 0.005 0.005 0.005 0.005 0.005 0.005 
0.005 0.005 0.005 0.005 0.005 0.005 0.005 0.005 0.005 
0.005 0.005 0.005 0.005 0.005 0.005 0.005 0.005 0.005 
0.005 0.005 0.005 0.005 0.005 0.005 0.005 0.005 0.005 
0.005 0.005 0.005 0.005 0.005 0.005 0.005 0.005 0.005 
0.005 0.005 
