# vtk DataFile Version 4.0
Generated by LIGGGHTS
ASCII
DATASET POLYDATA
POINTS 8768 float
-0.244915 0.00296459 -0.245 -0.234969 0.00183269 -0.244932 -0.223694 0.00249034 -0.245 
-0.213751 0.00358574 -0.244944 -0.203746 0.00358676 -0.244996 -0.193763 0.00281727 -0.244666 
-0.183929 0.00096588 -0.244389 -0.171413 0.00161191 -0.244711 -0.161631 0.00409923 -0.245002 
-0.216901 0.00303056 -0.00552768 -0.229119 0.0121561 -0.244999 -0.156327 0.00252942 -0.214563 
-0.164154 0.00325746 -0.0257699 -0.17496 0.00145179 -0.0278945 -0.177778 0.00226261 -0.037563 
-0.177569 0.0108698 -0.243877 -0.187263 0.00326572 -0.0405626 -0.229389 0.00431642 -0.236985 
-0.218768 0.0121555 -0.23523 -0.209246 0.00922647 -0.236092 -0.200171 0.00376139 -0.235651 
-0.190228 0.00685191 -0.236226 -0.176853 0.00403739 -0.236498 -0.166824 0.011097 -0.234642 
-0.236814 0.0107786 -0.238753 -0.185142 0.00169046 -0.0308036 -0.170923 0.0122007 -0.0020625 
-0.244226 0.00406129 -0.235018 -0.235763 0.00314149 -0.229262 -0.161864 0.00190927 -0.229688 
-0.18137 0.00264959 -0.0103803 -0.199407 0.00319515 -0.00765291 -0.184702 0.0112487 -0.00241072 
-0.209165 0.00437638 -0.0117167 -0.24473 0.00163966 -0.224645 -0.22458 0.00443877 -0.228218 
-0.214694 0.00312001 -0.228944 -0.204964 0.004162 -0.226884 -0.194953 0.00364401 -0.226861 
-0.184155 0.00295485 -0.229279 -0.171665 0.00290348 -0.227963 -0.2364 0.00561406 -0.00441715 
-0.156621 0.00345747 -0.200884 -0.226726 0.00291103 -0.00990292 -0.244999 0.00312571 -0.00931125 
-0.185219 0.0105276 -0.0153017 -0.237112 0.0063327 -0.21956 -0.227376 0.00425659 -0.218617 
-0.217414 0.00356392 -0.219328 -0.199141 0.00520889 -0.217126 -0.189142 0.00376794 -0.218658 
-0.179349 0.00161928 -0.22024 -0.164857 0.00202474 -0.219924 -0.244978 0.0124571 -0.220697 
-0.211949 0.0118579 -0.00424499 -0.204312 0.00321345 -0.0381747 -0.172578 0.00935554 -0.220362 
-0.245 0.0038444 -0.213931 -0.208794 0.00484098 -0.214375 -0.182824 0.00403738 -0.210911 
-0.172542 0.00266133 -0.212914 -0.176027 0.0116649 -0.0498628 -0.2328 0.0129828 -0.213378 
-0.229738 0.00240873 -0.0400877 -0.202371 0.00319722 -0.0275012 -0.175022 0.0113115 -0.0114768 
-0.195205 0.0113938 -0.0188684 -0.163008 0.0103587 -0.214665 -0.23711 0.00401682 -0.207788 
-0.227177 0.00325723 -0.208668 -0.21798 0.00852403 -0.20966 -0.202439 0.00460088 -0.206615 
-0.192813 0.00484014 -0.209383 -0.164292 0.00346402 -0.20731 -0.219728 0.00388653 -0.0253875 
-0.244732 0.00276009 -0.040442 -0.157541 0.0116465 -0.044974 -0.244796 0.00165561 -0.201821 
-0.221383 0.00382545 -0.200536 -0.211883 0.00310348 -0.203589 -0.195178 0.00453065 -0.199662 
-0.185304 0.00457457 -0.201239 -0.175691 0.00290816 -0.203427 -0.228727 0.00366243 -0.0300931 
-0.183494 0.00159409 -0.0206683 -0.15672 0.00279607 -0.126724 -0.244984 0.00198137 -0.0300789 
-0.166796 0.0107435 -0.0412926 -0.163467 0.0115721 -0.200558 -0.231309 0.004629 -0.199558 
-0.214158 0.00347516 -0.193627 -0.204579 0.00323297 -0.196502 -0.17722 0.00526575 -0.193537 
-0.167821 0.00297309 -0.19726 -0.192822 0.00268269 -0.0244835 -0.182956 0.012317 -0.0426778 
-0.220873 0.0110055 -0.193572 -0.211002 0.0129866 -0.0539315 -0.222054 0.0127898 -0.0534755 
-0.169669 0.0101821 -0.0304124 -0.1806 0.0108075 -0.0330774 -0.244937 0.00220119 -0.191832 
-0.235143 0.00736633 -0.190719 -0.226128 0.00239861 -0.190575 -0.197045 0.0042373 -0.189834 
-0.186861 0.00382269 -0.191121 -0.170549 0.0116477 -0.189481 -0.16123 0.00435998 -0.18987 
-0.212289 0.0125141 -0.188238 -0.162157 0.00807484 -0.0565368 -0.210393 0.00293587 -0.0215311 
-0.244998 0.0021743 -0.181779 -0.216134 0.00345093 -0.183824 -0.20652 0.00446335 -0.186572 
-0.197194 0.0040212 -0.17984 -0.187255 0.00421263 -0.181111 -0.176504 0.00455483 -0.183286 
-0.166659 0.00373266 -0.181501 -0.243715 0.0118733 -0.188218 -0.201825 0.0114376 -0.0592678 
-0.236779 0.0121739 -0.052868 -0.168123 0.01221 -0.0637091 -0.229692 0.0121808 -0.0599176 
-0.190296 0.0128749 -0.0359048 -0.23527 0.00460491 -0.180786 -0.225285 0.0038747 -0.17976 
-0.206731 0.00153019 -0.176917 -0.244927 0.0118705 -0.0590086 -0.192956 0.0111625 -0.00861727 
-0.212925 0.0111111 -0.178191 -0.162972 0.00356927 -0.0472724 -0.207627 0.0119158 -0.0329359 
-0.240697 0.00371156 -0.17076 -0.230677 0.00352193 -0.171345 -0.216169 0.00272682 -0.173815 
-0.192583 0.00337813 -0.170993 -0.182636 0.0038569 -0.171841 -0.172828 0.00325209 -0.173651 
-0.207993 0.0103626 -0.169506 -0.198481 0.0121367 -0.172812 -0.167319 0.0127877 -0.172434 
-0.222038 0.00344991 -0.165754 -0.201551 0.00321443 -0.16658 -0.18221 0.00130222 -0.162035 
-0.17241 0.00258312 -0.16355 -0.163084 0.00352576 -0.171463 -0.244951 0.0131619 -0.168264 
-0.182476 0.00397082 -0.0493448 -0.222224 0.012112 -0.0312111 -0.216074 0.0122594 -0.163893 
-0.187438 0.0127317 -0.165921 -0.176649 0.0125337 -0.168812 -0.158625 0.011671 -0.164262 
-0.240773 0.00427887 -0.160775 -0.230842 0.00314022 -0.161026 -0.210159 0.00422104 -0.161598 
-0.19207 0.00228613 -0.160688 -0.163299 0.00409037 -0.159716 -0.191712 0.00484367 -0.0530825 
-0.170991 0.00337593 -0.0560547 -0.228039 0.00291726 -0.019874 -0.196816 0.0111429 -0.162639 
-0.187351 0.0111008 -0.156056 -0.17778 0.0119321 -0.158859 -0.168434 0.0125598 -0.162362 
-0.245001 0.00443281 -0.151715 -0.235648 0.0107041 -0.154394 -0.2276 0.00496242 -0.151744 
-0.21883 0.00187974 -0.156409 -0.209984 0.00389662 -0.151606 -0.201299 0.00413946 -0.156589 
-0.191856 0.00310411 -0.150725 -0.18193 0.00220184 -0.152071 -0.171965 0.00317737 -0.153505 
-0.161906 0.00293986 -0.0160376 -0.173719 0.00195544 -0.0167839 -0.166959 0.012839 -0.151721 
-0.157002 0.0121509 -0.152328 -0.23635 0.0042153 -0.146709 -0.21865 0.00364085 -0.146568 
-0.200777 0.00390034 -0.14628 -0.162739 0.00383045 -0.149713 -0.18374 0.0041953 -0.0595389 
-0.206432 0.00257407 -0.0587466 -0.236712 0.00551903 -0.0243707 -0.245003 0.00308643 -0.0193415 
-0.186039 0.010814 -0.146148 -0.176539 0.0122381 -0.148922 -0.244946 0.00154616 -0.141696 
-0.227501 0.00366016 -0.14182 -0.209998 0.00315484 -0.141579 -0.190704 0.0037361 -0.140814 
-0.180217 0.00113586 -0.142274 -0.170389 0.00263149 -0.143375 -0.17588 0.00319043 -0.00203708 
-0.197391 0.0112928 -0.140464 -0.165319 0.0127189 -0.141752 -0.236051 0.00492995 -0.136742 
-0.218829 0.0030406 -0.136556 -0.201546 0.0030312 -0.136237 -0.183466 0.0022709 -0.132885 
-0.17344 0.00256831 -0.133771 -0.163524 0.00321801 -0.136126 -0.244992 0.0130458 -0.136999 
-0.168432 0.00434513 -0.00859824 -0.221387 0.0116992 -0.00971064 -0.207743 0.012457 -0.137825 
-0.195045 0.00420002 -0.0343556 -0.176474 0.0123233 -0.138925 -0.244942 0.00213212 -0.131697 
-0.227532 0.00367262 -0.131665 -0.210275 0.00269418 -0.131344 -0.193068 0.00443491 -0.131125 
-0.211684 0.00288807 -0.0314391 -0.22368 0.0117289 -0.127175 -0.222609 0.00409397 -0.0603215 
-0.181326 0.0110484 -0.127751 -0.169085 0.0122579 -0.132191 -0.159135 0.011635 -0.13298 
-0.236364 0.00373021 -0.126809 -0.219056 0.00285287 -0.126413 -0.210431 0.00336915 -0.121331 
-0.201679 0.00312666 -0.126215 -0.188175 0.00305423 -0.122518 -0.17835 0.00181232 -0.124214 
-0.166628 0.00421744 -0.126618 -0.229101 0.0118331 -0.0464083 -0.232746 0.0124418 -0.122883 
-0.213783 0.0124782 -0.125989 -0.18774 0.0111491 -0.0260704 -0.195392 0.0102904 -0.122594 
-0.172695 0.0111854 -0.122536 -0.245 0.00392165 -0.121567 -0.236275 0.00563015 -0.116467 
-0.227946 0.00297866 -0.121464 -0.219236 0.00396264 -0.116437 -0.201826 0.00349273 -0.116206 
-0.171121 0.00269512 -0.116906 -0.161068 0.00224768 -0.117375 -0.245004 0.0113512 -0.0472481 
-0.172835 0.00226845 -0.0462554 -0.214061 0.0121532 -0.0252523 -0.220606 0.00342085 -0.0359219 
-0.158311 0.0110421 -0.121261 -0.244997 0.00372063 -0.111561 -0.227854 0.00290279 -0.11147 
-0.210618 0.00421979 -0.111346 -0.192191 0.00353051 -0.113375 -0.182179 0.00418989 -0.114598 
-0.237644 0.00382735 -0.0597017 -0.156653 0.00467203 -0.180983 -0.17604 0.0120065 -0.113142 
-0.165787 0.0105098 -0.113546 -0.236447 0.0025647 -0.106377 -0.219274 0.00393109 -0.106344 
-0.201679 0.00157688 -0.10638 -0.186917 0.00266947 -0.104923 -0.175809 0.00411507 -0.106884 
-0.166134 0.00167568 -0.108274 -0.156184 0.00301586 -0.108642 -0.242586 0.0121032 -0.106625 
-0.205357 0.00263741 -0.0488044 -0.158899 0.00271741 -0.00594633 -0.195 0.00896189 -0.105444 
-0.237256 0.00633798 -0.0347871 -0.244987 0.00128741 -0.100773 -0.227855 0.00321437 -0.101218 
-0.210476 0.00399894 -0.101338 -0.194882 0.000812984 -0.0979458 -0.179806 0.00235717 -0.0978864 
-0.160888 0.00279839 -0.0997076 -0.196489 0.00398153 -0.0443445 -0.191497 0.00277727 -0.0145729 
-0.204641 0.0133095 -0.0987157 -0.201035 0.002946 -0.0175793 -0.166189 0.0123493 -0.103308 
-0.185959 0.0142332 -0.136398 -0.235988 0.00300834 -0.0953642 -0.219187 0.00471285 -0.0963656 
-0.203807 0.0020883 -0.0935724 -0.170066 0.0034009 -0.0957121 -0.242798 0.0118097 -0.0963343 
-0.196575 0.0107723 -0.0927434 -0.186603 0.00979039 -0.0979057 -0.218411 0.00341064 -0.0154397 
-0.244908 0.00321849 -0.090469 -0.236313 0.00307284 -0.0853561 -0.227046 0.00202516 -0.0890261 
-0.212409 0.00440512 -0.088963 -0.195976 0.00241827 -0.0872799 -0.186405 0.00231095 -0.0903726 
-0.178038 0.00298259 -0.0849106 -0.166962 0.00463504 -0.086218 -0.157443 0.00342554 -0.0901903 
-0.243167 0.0125245 -0.0863594 -0.232483 0.0116937 -0.0886702 -0.222073 0.0123777 -0.0889384 
-0.215086 0.00338777 -0.053773 -0.189159 0.0117303 -0.0860698 -0.178635 0.0111806 -0.0916825 
-0.160296 0.012163 -0.0853274 -0.244975 0.00420584 -0.0803283 -0.229099 0.0032022 -0.078434 
-0.219893 0.00469365 -0.0821354 -0.205166 0.00352406 -0.0820557 -0.188293 0.00225261 -0.0805508 
-0.236496 0.00482361 -0.0143855 -0.213789 0.0126265 -0.0819114 -0.199171 0.0117897 -0.0823175 
-0.173009 0.0120675 -0.0833048 -0.237745 0.00344235 -0.0733785 -0.212651 0.0029234 -0.0754305 
-0.197121 0.00366632 -0.0760657 -0.171813 0.00373686 -0.0770742 -0.16173 0.00476869 -0.0776879 
-0.244929 0.0113294 -0.0729486 -0.213271 0.003102 -0.0427103 -0.205963 0.0103839 -0.0748217 
[...]
POINT_DATA 8768
FIELD FieldData 3
id 1 8768 int
39 25 66 4449 55 35 30 1081 200 
918 7030 1926 1056 102 233 3511 2671 1799 
1777 52 920 936 169 37 42 929 6152 
40 3566 919 917 931 4459 1769 2653 3538 
1760 905 151 925 1038 897 1804 2652 930 
4446 11 934 906 3524 890 939 1759 2665 
3551 12 2688 935 3570 900 944 1763 5322 
1785 903 3547 4430 1909 913 2686 3567 2663 
1771 1988 57 22 2798 48 62 891 32 
1758 1806 1815 14 1100 938 2633 2677 1762 
885 61 2687 1104 26 2672 4409 2650 4415 
2766 1029 33 7 2662 67 896 4406 165 
5311 3527 978 7038 1781 1812 879 34 1800 
45 7933 3572 3526 3546 3575 2643 56 1786 
892 1766 7895 5270 186 1817 3520 878 887 
51 2697 24 3574 2656 3565 1818 883 1795 
1091 222 3569 928 3516 2635 6174 3541 1951 
1816 3 884 63 1059 893 53 1783 3549 
3519 4448 3706 1776 1784 2696 4444 2646 1809 
64 1045 2690 1051 1087 1982 1963 18 901 
940 1912 29 9 926 93 3532 2661 1805 
914 881 1772 2681 1076 1077 3523 1890 1821 
1768 1770 1790 1773 902 4393 251 3534 2649 
1797 2670 19 886 1755 17 907 1822 911 
3573 2660 2822 895 1798 1810 164 49 1101 
1782 4452 6192 2667 1794 2666 2637 41 15 
1796 3513 1765 204 146 1774 13 3518 65 
3571 43 58 5 1802 1792 2640 1050 5307 
1761 59 910 943 3562 880 915 28 2678 
1820 1976 2685 1808 1791 1779 904 1814 908 
47 21 1756 4424 937 4574 2680 1803 27 
2636 1787 4426 3554 5292 2639 1 44 46 
1788 941 1778 894 16 1063 4397 7045 3533 
50 4442 3544 1935 1801 2673 889 8 20 
54 3542 2659 2674 927 2658 2698 912 196 
2675 2654 3561 1764 1767 922 932 921 888 
4 2669 899 1016 2644 1789 2834 3557 2684 
4394 1813 36 219 933 924 3548 923 2695 
1110 5320 2638 3530 2693 2844 3529 4389 4435 
4421 6173 2657 4403 2655 3525 4420 5263 3558 
3564 4450 3559 3545 3517 3521 2689 5275 2818 
3509 4428 2679 2682 3552 4447 2632 3543 2694 
4439 5298 7023 23 4386 4437 31 4440 4417 
4410 3577 4404 4407 5314 2676 3510 4411 5329 
7057 7037 3536 6203 10 4441 7079 5281 4388 
3514 5315 2651 5299 4392 3555 6180 5295 5274 
5309 2648 6194 4431 5304 1775 4401 3539 3678 
3553 2664 2683 4434 6155 3560 1947 3537 5264 
6 108 5363 2713 246 1184 1811 3615 87 
2647 1146 992 942 995 916 80 295 962 
1114 7075 4504 3639 2750 83 131 91 1886 
133 4499 4514 4489 3606 3614 3583 1871 1846 
946 119 85 2744 969 950 1005 8011 5341 
1882 3593 81 970 3630 134 2761 302 4516 
1155 4481 1839 975 2701 2757 1841 77 76 
4508 3625 3578 972 1860 1119 2894 1004 949 
1842 2719 3624 97 88 79 2699 3611 125 
2748 1843 2736 1850 1884 1006 1877 967 1838 
126 4464 1875 3637 1849 115 90 2731 953 
3613 4500 2869 2963 118 1836 973 3585 1864 
2881 2756 4492 1867 4458 70 69 991 117 
1878 2704 95 2930 6258 958 4479 1852 4486 
4462 5335 959 3592 1834 89 1847 1003 2743 
1007 1888 3633 5395 3820 72 1829 1854 1887 
986 1863 965 1827 2730 4511 961 945 2717 
979 1001 1835 255 252 4455 5332 2726 3635 
5349 5351 2729 75 2741 1866 74 1144 2702 
1870 3597 4463 1844 1837 3579 988 1868 2762 
109 968 7124 3587 2722 1840 2705 92 2708 
2723 1855 2732 2078 5392 1862 3601 113 2718 
1879 998 983 4465 3612 948 2738 2763 5533 
994 1876 1825 1200 1872 2042 966 2752 5381 
3588 2749 6268 957 1859 107 989 120 5380 
3623 4473 4491 987 1002 2735 2057 3616 954 
3582 3619 3626 2745 2700 82 112 997 1861 
2714 951 974 1000 1848 2740 2733 4453 3800 
101 1826 129 1881 104 1869 2715 3580 2724 
2709 2721 971 1833 980 132 100 5376 128 
3594 73 2951 2716 2707 1009 1873 123 5334 
5377 1845 1856 3640 1991 99 3596 2720 2739 
964 122 86 4495 309 4476 111 1832 1874 
121 1865 996 1181 7144 5366 1206 1008 3589 
1149 2764 3621 94 2710 2751 2948 103 105 
116 1883 1851 78 984 1831 3641 985 130 
947 976 960 1858 2924 1823 4467 5394 3620 
981 3763 110 1857 114 1010 2028 977 6243 
4466 5390 98 4475 2742 4512 963 1828 106 
1824 993 84 124 6254 2725 2081 71 2737 
2728 1880 5336 3709 3609 4472 5346 3629 2668 
2754 5385 4477 6388 4469 7112 3600 1885 2962 
6211 4518 3632 4480 1116 1793 4485 3628 5355 
6270 6251 1830 5330 5353 2727 3599 4496 4497 
4484 4513 1853 952 4468 2024 3642 3607 3584 
8204 3590 4510 2885 2891 3604 4717 5344 6222 
4501 8009 3636 1757 3617 3586 4490 2760 3581 
4494 2008 2703 4502 3610 5373 3598 2746 3634 
3608 5360 2711 7975 2753 4487 4391 7911 7951 
6199 7900 4436 4451 7959 7915 4419 2793 7070 
7068 4396 6145 6153 7962 8108 6185 5265 8103 
7923 7949 4390 6154 4399 5405 7074 6166 6159 
6163 7941 7247 6186 6176 8063 7082 7920 6197 
7073 8076 5269 7046 4412 6204 7083 5268 7078 
7040 6158 4402 6156 7180 7034 7952 7948 6295 
7044 6187 5302 7909 5305 7058 7921 7958 5300 
5457 7043 6160 8086 4422 7936 7059 6196 7022 
6140 7918 7898 6168 6344 7932 5319 7028 8101 
7024 5301 6162 4583 5286 7235 7910 7906 2642 
2865 7919 6178 7077 7061 6161 7021 4416 6190 
5283 4438 7041 6348 6171 6148 5279 4433 7961 
4400 7913 7072 7903 4443 5276 6179 7062 7950 
7186 7896 5303 5284 5282 5310 3685 7032 5415 
7917 7081 6164 6142 5266 7902 6198 7049 7934 
8042 7213 5306 6183 7912 5291 7929 6193 7897 
7069 3576 4414 5318 6184 7947 5272 8111 7065 
5290 5293 7036 7048 5317 7055 7905 7150 7945 
6169 6293 7924 7027 7914 8092 6200 7942 5312 
6151 4408 7899 7047 6165 7080 5277 4445 7916 
5288 7957 7039 4398 5271 5289 6144 6141 4551 
7930 6143 6181 7060 5324 5294 6157 5316 6307 
7955 6191 7946 6149 6172 7067 5328 5326 7052 
7943 7931 7926 6175 7054 6206 6305 7051 7018 
3535 6177 6146 6202 5313 3726 7064 5267 7035 
3528 7960 6195 5325 4395 6366 7940 4432 7050 
5285 7907 7925 7192 7963 7029 4405 4423 6188 
4429 6300 6182 6201 7953 6167 3556 6189 6150 
7904 7901 2691 7066 6147 7056 7053 6170 7026 
7939 5280 7017 7908 7042 7937 7076 7938 7956 
3631 7089 6232 6351 7954 7020 2641 8126 7922 
6209 5287 5278 7979 7031 7175 5327 4540 4413 
4427 7063 7944 3563 3515 5321 3568 5273 2645 
5308 7094 1780 5297 7223 7071 3522 4425 3550 
5296 4418 2954 7103 990 7935 7294 6205 8206 
7967 4387 7122 4623 6217 7927 6223 8013 6260 
4639 6256 8027 6395 8217 7966 5348 6474 7969 
6265 8023 6257 7985 5388 8008 7984 6252 8226 
4461 7971 6261 6228 5379 6241 8225 6233 5393 
7087 7147 7084 7113 5338 7988 7097 6237 7096 
8002 7278 7106 7141 7323 8020 6242 6214 8022 
7136 7993 4498 5364 6266 6426 8172 7970 6253 
5369 5342 4667 7090 7976 6466 7107 5331 5333 
4460 7128 7120 7095 7964 7109 5371 7121 8018 
8006 8017 7140 6208 6210 5526 8182 6219 6227 
6216 5339 5378 5383 7132 7982 8003 7999 7987 
7137 7139 4515 7330 6247 7992 7092 7143 7989 
2747 7126 5370 7104 6255 7267 7284 6218 7123 
7116 4670 7996 7978 6244 7130 7145 4478 8029 
7129 4456 4503 8178 8015 7974 6225 5389 7995 
6264 8171 8025 3602 8007 4671 4470 6236 7115 
6263 8189 7110 7093 5356 5382 5368 5340 8024 
5551 5350 7972 7968 6230 6448 6221 8028 6224 
6262 6213 4517 3793 8016 8019 5347 8001 8174 
7138 7088 5352 5372 5391 8012 4483 6267 7146 
2712 2706 8004 5357 7108 5386 6406 7099 7114 
3643 4488 7086 6220 7111 7998 8196 5374 4493 
8000 7965 6239 6245 5375 5345 5343 4457 6231 
7301 7127 3603 7983 6269 7118 8010 5560 8005 
7085 5367 7142 5555 6248 6250 7973 7149 7131 
6226 6238 6207 8026 8177 7981 7990 4454 4509 
8014 4507 7997 6215 5387 6439 7125 8183 7102 
2734 7100 6234 6246 7101 5384 6235 5354 6378 
7133 5517 6229 6249 6272 3618 7134 5337 7098 
7117 8216 7977 7980 5358 7259 7119 6240 7986 
4505 7135 6212 5362 7994 7991 6271 5359 3627 
3605 3622 8021 982 7277 7105 5365 7148 5588 
6469 3595 5361 3591 3797 8169 4482 3638 2755 
4506 4471 4474 155 2823 1018 909 232 144 
1290 1097 216 1819 158 3017 5493 1078 3722 
1117 3063 170 1943 1019 1898 2775 2118 1080 
6358 3677 183 1961 898 198 218 1014 1989 
210 162 3737 1944 1013 1084 1972 1917 1108 
1953 1980 1942 2811 3652 345 3705 4611 3646 
4535 1892 180 1973 1047 1957 2782 4587 3697 
2821 3700 153 4530 1934 3738 3021 2781 203 
1035 1903 1012 1070 1932 2843 228 1011 1037 
2841 220 139 1948 1040 1918 3659 3649 3681 
4593 3540 1015 1930 279 1987 1985 1967 1057 
1956 163 2094 3664 3739 1959 1941 3688 1069 
1938 3698 1049 4519 235 224 4548 3730 2851 
256 2825 2827 201 1073 136 2846 1025 3724 
2813 4584 1905 2858 2810 150 1979 1065 1096 
1893 223 182 3713 1072 1112 2832 161 2850 
1970 2767 2797 185 1939 1039 3645 3710 1946 
4567 1962 3701 214 1928 1910 205 195 3714 
154 197 1066 2863 3661 2862 211 176 2848 
1027 1916 2768 2861 2812 296 1920 1974 2 
221 1043 1026 1107 1111 1897 1925 3728 2805 
3699 3721 1983 3672 1966 1023 3648 202 1986 
1044 1020 1927 5495 1936 2860 4543 5467 1085 
174 1958 1064 1048 184 4579 2800 5429 2857 
234 1940 1092 209 175 4528 2778 2773 2815 
3725 1929 1931 2771 1949 1034 1915 171 1106 
189 1067 3727 2816 2776 3694 2795 2838 1913 
213 1075 1896 1030 1891 2804 300 2789 207 
2849 1041 212 1889 2828 2836 3704 1937 1923 
2099 303 60 143 141 1094 2786 1083 1109 
2833 1071 2119 4568 225 3667 2792 1952 135 
177 3720 1964 2774 1068 2769 4578 160 2835 
882 173 190 3723 208 2856 1924 1089 3650 
2770 166 1088 1028 137 1904 191 159 391 
1960 1954 2807 1901 3695 1052 217 167 1945 
187 1984 1894 2852 2777 2830 1242 1074 1086 
206 1099 172 157 1082 1036 4615 2780 2799 
5398 4564 1095 149 1062 1079 1933 229 1977 
1911 2831 3719 2772 2840 2853 38 1968 1965 
1058 1055 1950 3744 4547 4561 3065 227 194 
215 193 1042 1899 181 1090 1807 3702 2845 
2809 3673 2801 2808 145 1969 3693 147 168 
1017 230 2855 2784 1054 1908 2837 1900 2817 
1046 3674 1975 361 4582 1021 3690 1981 179 
1060 140 1033 1102 156 2779 142 2787 4609 
1895 4539 199 1971 1031 188 1978 178 1105 
138 1093 3742 2802 192 3687 2842 5420 3716 
2788 3731 2814 2897 3740 4563 1902 4586 3691 
1268 4573 2859 3692 2893 1919 4550 5436 3682 
4571 2791 2829 3651 5454 3743 4553 1955 4590 
7178 4598 4527 3662 7242 1921 4599 1169 5492 
3708 4537 4533 4589 2945 2824 2790 3711 3741 
2854 3669 3665 3736 5505 6357 4555 4602 5681 
3729 2052 3660 4606 3712 5482 3762 3512 3531 
2953 2819 1914 2864 4588 2986 2692 2070 3102 
2803 243 2221 2959 310 2938 1340 3828 4712 
274 1134 1209 2025 2086 269 1199 257 4682 
2077 1906 2005 2888 3777 1201 96 2087 1168 
254 1183 2006 2878 2932 3780 3796 3799 3806 
1151 1166 1211 335 1124 1121 3843 2919 2937 
3832 5717 4715 237 1197 2036 286 2007 338 
3813 2946 2915 2925 3753 2026 2901 2056 240 
322 1382 4711 3768 2960 2072 2942 3798 1995 
2073 1213 271 320 2896 2053 1133 273 1361 
306 3845 3784 3748 2889 2247 2931 1098 1118 
1126 1406 2913 3807 4707 2910 2902 4853 1125 
68 2956 1177 321 2071 2935 3805 261 3163 
3789 2033 2961 2014 248 290 1993 276 2887 
4695 4649 508 530 3759 2016 326 2054 2061 
3801 2058 3754 482 2021 2013 2027 2046 241 
1198 242 1148 238 1387 2064 2877 3746 3773 
1163 2944 955 1990 1191 1153 1193 317 2955 
2253 4669 301 2068 3838 6440 1174 1178 337 
311 333 1161 1192 2868 3778 2089 2075 239 
2009 336 247 2911 339 272 3842 285 264 
3760 2920 2940 297 1182 2906 1131 282 498 
503 4646 3074 1123 2207 312 244 2035 1140 
1202 451 1996 2943 1159 258 3783 2011 2048 
956 259 304 307 1160 1998 1189 1357 1129 
2045 2084 4650 3788 3833 268 2074 315 1992 
267 1195 3803 6434 3766 3785 294 281 1167 
328 1137 324 4698 3749 2890 2020 2882 3775 
4034 330 2004 1154 1175 1122 323 2031 4632 
1207 2069 2957 3810 2030 2015 332 291 2047 
1142 1170 2051 2936 5543 2918 501 2034 1128 
316 262 1188 313 2018 4653 4710 2884 2908 
3761 2905 2210 1212 3769 278 2041 1145 2874 
2870 2947 2929 3840 2017 293 2067 308 329 
2040 1165 2023 1115 1210 4628 3839 2875 6431 
3750 1147 1120 275 1152 1136 3751 2088 2872 
1205 2871 270 2083 260 2917 2062 1173 1139 
245 3815 2883 1185 314 1194 1186 327 2049 
2873 2900 2022 2082 2037 3817 2876 1999 1158 
1162 236 266 2063 253 1156 250 284 3774 
2038 2759 1157 4706 2001 2002 1204 1113 1176 
1318 2000 3823 2966 288 1190 1138 1214 2059 
1135 289 5566 298 2933 1130 3827 4681 2965 
2055 2066 277 2039 287 1179 1171 1196 1180 
3844 2964 2044 1376 2892 999 1127 1164 1141 
331 2758 3755 3747 3836 2879 3966 1203 280 
1208 1143 2080 1329 2065 7348 4656 2927 3772 
4662 3822 305 127 2012 1187 1172 2032 2043 
265 2019 2029 3752 2903 3771 2907 2003 4637 
3756 2950 2895 3824 3767 2922 3782 5521 2916 
4689 1994 2076 3826 2928 4685 2941 5571 2867 
4666 4032 4697 3113 6397 4625 3830 3809 3745 
2050 3791 5577 3829 3757 2899 3825 2926 3786 
3835 3124 3834 5569 3837 4721 3812 4688 2904 
2060 2898 3779 3821 2866 3795 5539 4626 4657 
2010 4716 4705 8066 3686 6353 7189 7170 8271 
6491 7174 8093 8128 4546 3647 7237 7176 6277 
7025 6286 8104 8043 6276 4576 8055 7248 7224 
8030 7209 5486 7216 7201 8263 8123 7182 5421 
7202 5478 7168 7198 6289 8071 6275 7033 5466 
5403 4581 8109 5440 5443 7161 8069 7204 8255 
5428 5470 5427 4596 5496 6303 5462 6346 8070 
8051 6341 4575 6302 6340 5414 6361 8057 4559 
5452 3732 4580 5461 4610 7155 8082 8050 7205 
7199 4619 5476 5475 5425 8125 7187 8253 6321 
6281 8068 7245 3938 3644 5442 6342 5453 6374 
5679 4604 8124 6454 6273 4542 5479 4605 3717 
7160 8059 7232 7219 8119 8032 5418 2783 6370 
4565 6373 5434 6301 8044 8035 8288 7210 4532 
5413 7159 5404 6364 7243 6350 8090 6313 5459 
3671 6318 5449 5487 6569 5480 6320 6362 7200 
7167 7208 7449 5458 4536 3735 6290 6367 7157 
6294 7194 5473 4534 4617 5410 7169 5433 6372 
5412 7230 7233 8045 7173 5438 5448 5447 4614 
4620 4618 3663 6274 6284 6369 8273 6359 3680 
5485 6544 7215 8098 8102 7152 5419 5483 5423 
8049 7195 4523 3734 4585 3689 7217 5455 6288 
8099 8100 8107 8299 5456 4525 5469 3715 5399 
5401 5426 5439 5621 7171 7190 6306 4613 5407 
5396 4591 5673 5674 7158 8114 7181 8039 7425 
8040 6279 6363 7166 7154 6354 8034 8067 6310 
7183 8088 8053 8095 2765 5464 6325 4616 3656 
3670 8085 8105 6343 8130 7185 7179 8113 5437 
3655 4522 7221 6347 7239 8117 8058 8089 8079 
8031 8293 7249 4520 5488 5408 6328 5397 8047 
5402 7165 8074 8121 7184 8056 4603 5435 4549 
4597 4570 6287 6311 3707 5416 7222 7220 8033 
8073 8115 4524 5484 4601 6297 5490 6291 6326 
6280 6331 6292 8075 8285 5489 4577 5422 4545 
3657 5450 3683 8097 7156 7197 7246 7228 6360 
8037 4541 5441 5411 6308 5463 5465 3679 4817 
6299 7250 6319 7164 8120 4569 4572 6352 7153 
7212 8078 8129 8052 4791 7211 6317 6335 5430 
3733 5471 4554 4600 7229 7203 8106 6296 5446 
6356 5468 5451 5445 5474 8064 6332 6339 8062 
6337 6283 4595 4592 4538 8083 6278 6322 5491 
6371 4558 5424 8118 7226 6336 6304 3654 5460 
4562 8077 7151 6324 6349 8247 7231 8072 8080 
7206 4529 6314 4607 6323 7172 5444 7227 7188 
7193 8096 7234 8091 7244 5477 4594 5432 4552 
6327 8038 8127 7214 8122 7928 8036 7191 5494 
6334 5400 5472 4557 7218 6316 5409 8094 5417 
4560 4531 3696 6345 5406 6329 8081 8112 6298 
4679 4526 3684 8061 7207 7241 4693 8046 2826 
6309 4631 2820 6390 4640 7196 5481 6312 7225 
8054 7236 7240 4566 4544 3658 8087 2796 2634 
3703 4612 7162 4608 3675 7019 8116 6333 3030 
2794 4556 3668 7177 3718 3653 2886 2785 8065 
6470 2839 3802 3676 6330 6259 2079 8192 8041 
5540 6368 5508 7258 5522 5532 5575 7313 7327 
8154 7324 7339 8110 5572 6428 5513 4676 6463 
5586 8207 8060 8415 4678 4634 5554 8153 4647 
8179 8214 7298 7309 8434 6338 5563 5527 4633 
4673 6635 6403 6443 7266 6382 4701 7304 7287 
7290 5561 6414 4720 3841 7311 7286 6457 7346 
7303 8132 6461 5507 3792 3816 4684 4874 2934 
5516 8155 2958 6418 7336 8151 5567 4622 6451 
4668 7269 5583 6429 7326 8228 8201 8386 5595 
7273 6467 7337 8209 8219 7350 8380 5590 5594 
6416 5557 6459 2952 3776 5718 6471 8231 7282 
7276 6435 4718 5547 3770 6385 5519 8168 8160 
8139 7317 6389 8145 4654 4677 3831 4674 3781 
5732 5546 6408 6401 8141 7345 7295 7349 7283 
7264 4692 3765 4708 8191 7268 6450 7310 5581 
5530 5538 5531 5502 3814 7289 7297 7255 7332 
6436 6377 8230 5528 5548 6472 5510 3787 5596 
6410 8194 7281 7252 8137 4703 6400 4699 4663 
6393 8199 7340 6415 7315 7347 5537 4702 5550 
5503 4645 8164 7280 7279 5515 5512 8165 5497 
5580 5544 5500 6462 5506 4687 7296 6386 7275 
8138 8150 7305 7334 2921 5534 3804 5552 6473 
4659 4621 6437 5549 7292 6468 8223 6379 8175 
8136 6464 5559 5542 5597 8205 7300 7263 7260 
6383 8208 7299 4627 2909 5520 3758 4700 5518 
7274 6396 8184 8149 8218 6399 5529 6433 5558 
3764 4891 8221 7333 7321 6460 7262 7351 3818 
5591 3794 4691 7251 4672 6476 6427 8213 5574 
6444 7489 4704 5556 4719 4709 4686 3975 6441 
6445 7261 6412 6419 8215 5592 5553 5545 6447 
7325 7270 7091 6449 7254 5504 8163 7312 4680 
4713 5573 6409 5587 6421 4636 7342 6423 6432 
4690 5576 5579 5509 5584 4630 5499 8181 6392 
5578 6384 7335 8135 8188 7302 7272 5498 4629 
3819 6430 7314 6398 7265 8131 8143 7308 6394 
7306 8336 6456 4655 5565 5585 8134 6452 8220 
8133 7291 3811 5501 7329 7331 4642 6422 8147 
7293 8167 8200 8412 8180 5511 6380 4664 6376 
5536 8161 5525 8210 8198 2912 8157 8212 7322 
4658 5562 6453 5593 8158 4644 8144 8142 6420 
8146 4641 5541 4683 4638 7343 5535 6411 6381 
7478 4675 4714 4652 5564 8224 7318 7469 8148 
4624 8227 5582 4842 7341 7328 8203 7344 7271 
6417 8222 4665 6407 4635 8202 5523 6458 7316 
8159 8185 7257 7319 6402 8186 6475 8195 7256 
6405 8187 6438 6404 4643 6465 6413 5570 4648 
5568 8176 6425 2880 2085 6442 7253 8193 6455 
8152 8170 8156 7285 8173 6375 2949 8190 8166 
6387 7338 5589 5323 4694 4661 5514 8346 4660 
4651 4696 1221 1316 2124 346 1266 1229 406 
386 396 3918 3019 2970 426 3064 2189 3917 
4748 3913 4951 1032 1022 1061 2996 1314 2185 
1459 2169 352 1289 2990 3046 2969 1264 399 
3060 3933 1351 433 3025 367 1276 3043 1228 
2155 2166 4750 5688 4945 1293 5672 5700 1053 
1286 1301 3052 2141 2129 405 1304 5692 2162 
3042 3892 3911 5641 1300 1256 152 1224 1251 
360 2186 2373 3039 4737 2139 3875 3051 3040 
2100 2152 3033 427 359 2151 2238 3008 402 
2154 3068 1303 3905 403 2180 2090 3928 1252 
3861 4723 2978 3940 3034 1225 417 1217 1279 
3010 3000 2125 1283 3855 469 4745 2128 3874 
2318 2159 358 1299 393 351 3879 3877 3896 
3878 3939 3004 231 2172 439 431 2168 1309 
2105 355 1237 3947 3929 2984 1294 2149 1277 
2163 381 1260 429 2131 1215 392 1280 2116 
374 400 2113 2095 1302 411 2138 2362 2134 
3268 3053 3853 3028 1259 1285 2133 2191 2847 
4785 3026 2967 438 3927 4778 1262 1236 369 
398 424 2109 2183 3045 3054 1223 1230 1272 
3002 1103 3027 3880 1271 3058 2150 1307 365 
384 349 441 357 1273 1220 2110 1261 2153 
4729 1284 4952 375 2126 2187 368 2146 1244 
437 2989 1235 3891 2993 4822 2143 148 376 
2182 1278 350 3066 3863 3890 4794 3945 2997 
1250 2120 389 410 2114 3909 1231 1240 340 
2144 2982 3847 3858 370 430 2999 1269 1234 
2975 4731 4733 2974 2145 2995 1312 394 1232 
1247 2165 1428 2971 4783 1366 2117 1255 2156 
1296 3894 414 2167 2104 3887 3882 3883 3059 
2161 371 1245 1291 408 418 4762 1274 3873 
3923 3850 2097 3062 343 2111 412 3001 2181 
1226 401 1292 3936 2170 3031 3175 226 2157 
1297 378 1257 2976 4823 3050 2103 3886 3006 
2130 2108 1222 425 3061 434 344 1238 2991 
2174 3897 2179 3013 373 1313 1243 1233 2137 
3009 388 3934 2115 1922 1275 2132 436 413 
428 613 2135 2106 3942 1298 364 356 354 
1253 404 421 2972 635 1295 3022 3906 3857 
2112 3037 2121 2188 409 363 420 1305 1248 
3036 3047 2098 2980 5649 3055 1024 2127 1287 
377 2988 1288 2171 2973 2122 3904 4738 2160 
3239 325 1227 2096 1306 1239 2190 3057 3884 
3067 2107 3011 348 347 1218 415 1263 2806 
2176 1396 2985 2175 362 390 2147 341 2093 
1315 2148 1254 1267 2173 342 2092 2158 4812 
5650 3876 3926 3856 3895 3864 4739 3865 5687 
2979 2136 2123 2178 4787 4818 3931 3888 3870 
3005 3925 3868 4821 3924 3003 1308 3038 3930 
3014 2101 6568 3048 3907 4790 3015 3032 3029 
4803 4757 5644 1265 3872 3848 4747 1907 2977 
3023 4811 6552 3049 3941 5667 3944 2992 3908 
5659 2998 3898 4722 3854 3916 2140 4759 4805 
423 3859 3862 4764 3889 5633 5605 2994 489 
1219 459 416 483 440 2223 2177 3083 4023 
1400 2987 1331 353 516 1359 1258 453 3932 
2286 3018 1599 1349 3156 2204 397 263 1344 
2218 541 2192 387 614 1408 540 4045 1409 
2254 299 2197 496 1249 1326 537 3790 3090 
1391 3963 2281 4000 2231 3159 283 2266 2275 
526 1416 531 492 3150 3992 2236 1403 3371 
475 485 1339 1383 3988 2213 3117 2214 2240 
442 462 473 1355 1368 4015 3993 1373 2217 
3158 2208 2219 513 2268 1404 500 2263 1365 
2255 3972 5758 3995 3069 1384 444 1324 1402 
446 1381 457 4924 2245 2249 2227 4039 4902 
3135 1415 491 3109 525 4917 2287 3990 468 
1356 1385 2195 2248 1377 3140 1370 1392 518 
3081 2259 542 2252 3120 4018 3088 1389 1343 
497 466 3096 4008 3138 4007 470 1544 2212 