# vtk DataFile Version 4.0
Generated by LIGGGHTS
ASCII
DATASET POLYDATA
POINTS 67302 float
0.00284197 0.00420672 0.00099782 0.00100612 0.0029786 0.000998215 0.00112763 0.000999212 0.00124974 
0.00429246 0.00282844 0.00099979 0.00511169 0.000999694 0.000999526 0.00627614 0.00308347 0.00099979 
0.00115283 0.00696713 0.000999357 0.000998241 0.00497625 0.000999179 0.000999306 0.00895379 0.00113163 
0.00311179 0.000999987 0.00099979 0.00638146 0.00188134 0.0026239 0.00440802 0.00161281 0.00276742 
0.00285576 0.0028295 0.0024433 0.000998322 0.00220718 0.00283955 0.000998588 0.00420534 0.00284296 
0.00255271 0.000996936 0.00317598 0.0058044 0.000998266 0.0043187 0.00099567 0.000996229 0.00442656 
0.00711148 0.00099402 0.000996042 0.00820704 0.00360468 0.00099979 0.0103169 0.0056828 0.000999107 
0.0110527 0.00754168 0.000999444 0.0103484 0.00365048 0.00099979 0.00901084 0.00160835 0.000997778 
0.0132879 0.00826402 0.000999126 0.0134775 0.00100288 0.000999236 0.0149453 0.00509952 0.000999657 
0.013325 0.00626945 0.000997185 0.0123467 0.00452709 0.000998668 0.0121836 0.002536 0.000998499 
0.0140181 0.003329 0.000999341 0.0154762 0.00100034 0.000999946 0.0109111 0.000997215 0.00099889 
0.0133796 0.00509909 0.00261089 0.00817222 0.000998897 0.00270649 0.00919541 0.00280468 0.00258411 
0.0111012 0.00469779 0.00255125 0.0120712 0.00848664 0.00256826 0.0157254 0.00610871 0.00283838 
0.0146631 0.00772865 0.0023481 0.0131834 0.00272216 0.00271745 0.0119613 0.00649684 0.00244106 
0.0151303 0.00242312 0.00239089 0.0121931 0.000996952 0.00253018 0.0140467 0.000997392 0.0032735 
0.0132512 0.00734781 0.00371055 0.01509 0.00424929 0.00319669 0.0111856 0.00271064 0.00272183 
0.0101649 0.000998611 0.00286097 0.00809385 0.000999352 0.00470387 0.0151005 0.00749653 0.00484751 
0.0123232 0.00565087 0.00421599 0.0134092 0.00397342 0.00425682 0.0115075 0.00155656 0.00432142 
0.0143197 0.00575212 0.00426545 0.0114145 0.0038624 0.00434038 0.00963624 0.0022454 0.00445074 
0.0156039 0.000998465 0.00452633 0.0158648 0.00687469 0.000998612 0.0165199 0.00275509 0.000997593 
0.0220165 0.00678692 0.000998973 0.0203057 0.00575211 0.000999127 0.0229728 0.00297081 0.000999185 
0.0207774 0.00900173 0.000998925 0.0228451 0.00885369 0.00099979 0.0174658 0.00807086 0.00099865 
0.023299 0.000998482 0.000999061 0.0174748 0.000998973 0.000998646 0.0182677 0.00590744 0.000998907 
0.0205028 0.00349913 0.00099979 0.0193978 0.00755581 0.000999793 0.0213856 0.00156923 0.000997994 
0.0185175 0.00275419 0.000998112 0.0221006 0.0047701 0.000998719 0.0194723 0.0009983 0.000999021 
0.0168135 0.00465275 0.00155094 0.018175 0.00877354 0.00273006 0.0189837 0.00437741 0.00206683 
0.0175563 0.00687504 0.00259641 0.0229793 0.000998821 0.00297196 0.021005 0.00759453 0.00252185 
0.0208896 0.0046852 0.00258568 0.0184828 0.000998392 0.00273471 0.0164856 0.00099777 0.00273412 
0.019689 0.00258571 0.00260601 0.0194735 0.00632705 0.00272296 0.021667 0.00284529 0.00250747 
0.0163775 0.00821705 0.00349013 0.017565 0.00503069 0.00336383 0.0175171 0.00315263 0.0026823 
0.0196105 0.00800978 0.00389314 0.0209832 0.000999331 0.00287029 0.0206929 0.00321982 0.0042119 
0.016185 0.00287311 0.00414636 0.0194519 0.00476646 0.00397061 0.0167949 0.00650041 0.00447964 
0.0196488 0.000996892 0.00435724 0.0186175 0.00270528 0.00428875 0.0220893 0.000999908 0.0047625 
0.0159969 0.00472166 0.00491313 0.018778 0.00627693 0.00509134 0.0179209 0.00807741 0.0049607 
0.0176032 0.000999437 0.0045304 0.00436304 0.0130533 0.000999215 0.00298562 0.0186724 0.000999792 
0.00395895 0.0169257 0.000999175 0.00635742 0.0129288 0.000999508 0.000999071 0.0109463 0.000999015 
0.00670076 0.0150656 0.000999675 0.00280913 0.0117952 0.000999609 0.000998022 0.0149165 0.00099877 
0.00110176 0.0169116 0.000999329 0.00470212 0.015024 0.00099965 0.000999585 0.0189065 0.000998284 
0.00283717 0.0153916 0.00161842 0.0011601 0.0129314 0.00114747 0.00279845 0.0133999 0.00219258 
0.00583171 0.0141086 0.00252545 0.00252875 0.0172204 0.00236515 0.000999851 0.0117938 0.00280909 
0.00403492 0.0147736 0.00309418 0.000998495 0.0159161 0.00272943 0.000999611 0.0183804 0.00292505 
0.000999267 0.0139229 0.00288928 0.00259119 0.0138556 0.00412723 0.000998645 0.017099 0.0044581 
0.000998326 0.0127346 0.00457262 0.00250177 0.0158493 0.00404337 0.00099876 0.0147995 0.00488042 
0.00101673 0.0192028 0.00474618 0.015084 0.00914241 0.000999094 0.00869771 0.0149734 0.000999346 
0.0105645 0.015689 0.000997558 0.0121973 0.0174175 0.000996628 0.00981408 0.0110964 0.000998788 
0.0152658 0.0111338 0.000999176 0.0142586 0.0165315 0.000998663 0.0125271 0.0153145 0.000997801 
0.0117877 0.0114058 0.000998815 0.0110692 0.00954032 0.000999927 0.0136025 0.0122414 0.000998984 
0.00827654 0.0123726 0.000999633 0.0141899 0.0141473 0.000996107 0.0134219 0.0102546 0.000999205 
0.0119701 0.0133957 0.000999859 0.00997142 0.0134324 0.000999591 0.0116877 0.0104379 0.00274347 
0.00779438 0.0137853 0.00232946 0.0146074 0.0152873 0.0025766 0.0138484 0.00949678 0.00279881 
0.0109806 0.014377 0.00244405 0.0144486 0.0114031 0.00280328 0.0130073 0.0164694 0.00255345 
0.012961 0.0141616 0.00257048 0.0106426 0.012213 0.00243541 0.012619 0.012203 0.00273703 
0.014969 0.0133249 0.00264244 0.0143017 0.0183345 0.00188198 0.00945981 0.0135054 0.00339896 
0.0141618 0.0175956 0.00373254 0.0126893 0.00918828 0.00439727 0.0119748 0.0143742 0.00429313 
0.0141232 0.0143223 0.00425807 0.0149067 0.012494 0.00445906 0.011843 0.0114931 0.00443468 
0.0137376 0.010879 0.00459597 0.0158152 0.00995155 0.00267391 0.0158267 0.0152925 0.000996529 
0.0217605 0.00943753 0.00268255 0.0159402 0.0176107 0.000998097 0.016127 0.0133154 0.000999758 
0.0215879 0.0108301 0.000999788 0.0169033 0.00998843 0.000998545 0.0196426 0.0113526 0.00099979 
0.0176863 0.0120635 0.000999635 0.0234202 0.0121678 0.000999654 0.0188459 0.00951679 0.000999203 
0.0179985 0.0107581 0.00248161 0.0232197 0.0107752 0.0024205 0.0163597 0.0118997 0.00248706 
0.0198957 0.010143 0.00258012 0.0179489 0.00996828 0.00431663 0.0162504 0.0110229 0.00430364 
0.0209372 0.00937563 0.00450363 0.00237364 0.00203824 0.00542109 0.00407585 0.000998566 0.00531958 
0.00597133 0.00801124 0.00596714 0.00296512 0.000997008 0.00701934 0.000998049 0.000998428 0.00642847 
0.00667826 0.000999029 0.00611491 0.00495232 0.00118068 0.00710638 0.000999416 0.00310433 0.00640723 
0.00232719 0.00247306 0.00820301 0.000998706 0.000998625 0.00842685 0.00668741 0.00137678 0.00807672 
0.000994582 0.00389069 0.00864922 0.00278298 0.000997102 0.00946799 0.00501194 0.000997569 0.00909634 
0.002298 0.00355966 0.0101244 0.00399331 0.00253924 0.00985297 0.0066546 0.00224639 0.00987601 
0.000999781 0.00699334 0.0107883 0.00573725 0.00340387 0.0112234 0.000997992 0.00274299 0.0114025 
0.000998764 0.000999208 0.0104252 0.0025468 0.00573605 0.0116317 0.00377234 0.00411805 0.0113501 
0.000999324 0.00500336 0.0105982 0.00423696 0.00222999 0.0118104 0.00270557 0.000997346 0.0114644 
0.00560023 0.000998133 0.0110252 0.0027726 0.00896404 0.0121198 0.000998153 0.00899249 0.0107911 
0.00740132 0.00245763 0.0117823 0.0138225 0.00166174 0.00514418 0.0102169 0.000997282 0.00589889 
0.0129553 0.00766305 0.00566208 0.0147138 0.00337803 0.00564533 0.0123323 0.00509629 0.00613658 
0.0127511 0.00315059 0.00595043 0.0107676 0.00291571 0.0059784 0.00849398 0.00153124 0.00675753 
0.00972408 0.00247459 0.00802191 0.0113071 0.00381677 0.00767992 0.0110369 0.000997718 0.00773069 
0.0142842 0.000997779 0.00793568 0.0122041 0.000997492 0.00610804 0.0126701 0.00214733 0.0076727 
0.0113584 0.00235317 0.00916512 0.00855155 0.000997551 0.00868235 0.0102036 0.00388855 0.00971574 
0.0101091 0.000996293 0.00993142 0.0128217 0.000996677 0.00929601 0.00827932 0.00420083 0.0113627 
0.00942074 0.00581578 0.0116455 0.0106813 0.00251794 0.0110889 0.00951382 0.00784777 0.012 
0.00859106 0.00271042 0.00971141 0.00815064 0.00099794 0.0106416 0.0119763 0.000997875 0.0111034 
0.0153784 0.00165304 0.00639959 0.0200782 0.00762134 0.005798 0.0199948 0.00471832 0.00589446 
0.0179374 0.00434514 0.00520286 0.0206641 0.00197381 0.00577224 0.0171169 0.00248741 0.00587213 
0.0190148 0.00300668 0.00622466 0.0187892 0.000999932 0.00616246 0.0207372 0.00299006 0.00749054 
0.0170836 0.000998596 0.00720626 0.0220468 0.000995512 0.00682857 0.0208191 0.000998797 0.00840253 
0.0216739 0.002612 0.00921494 0.0227951 0.000999563 0.00870803 0.0207778 0.00099939 0.0103989 
0.0225693 0.00338556 0.0108247 0.0188369 0.000998706 0.00816186 0.0233321 0.00580954 0.0119935 
0.0242289 0.00901363 0.0116888 0.0163799 0.00653892 0.0116614 0.0226106 0.00099838 0.0111966 
0.0241496 0.00240514 0.011557 0.0019442 0.0161873 0.00596474 0.00337039 0.014509 0.00584894 
0.00099794 0.0128969 0.00656494 0.000999745 0.0179211 0.00627988 0.000997965 0.0148265 0.0070809 
0.00274845 0.0154736 0.00779353 0.000999686 0.0166747 0.00784224 0.000998643 0.0114045 0.00953639 
0.00634982 0.0140107 0.00955187 0.00245563 0.0168642 0.00919959 0.00445432 0.0135417 0.00997898 
0.00257822 0.0124338 0.0102007 0.00291788 0.0136927 0.00868514 0.000999778 0.0131438 0.00854925 
0.00102551 0.0150914 0.00906255 0.00381187 0.0153682 0.00948282 0.00296027 0.014145 0.0111617 
0.00302947 0.0180881 0.0106788 0.00109584 0.0137581 0.0105504 0.00538865 0.0153257 0.010712 
0.00264361 0.0108391 0.0114368 0.00616717 0.012305 0.0114902 0.0049774 0.0138351 0.0119799 
0.00418231 0.0121122 0.0113497 0.00472988 0.0171554 0.011613 0.00280455 0.0161333 0.0110305 
0.000999319 0.0119764 0.0114521 0.000998481 0.0168533 0.0105676 0.000999713 0.0154323 0.0119738 
0.00100703 0.0183553 0.00892485 0.000998357 0.0188297 0.0108669 0.0106168 0.0131805 0.0051437 
0.00742034 0.0149326 0.0109664 0.013078 0.0128811 0.00516606 0.0143403 0.00921581 0.00552475 
0.0139677 0.0141411 0.00643546 0.0127308 0.00971204 0.00660035 0.0117002 0.0120189 0.00635864 
0.0136586 0.0115033 0.00649374 0.01034 0.0133544 0.00711597 0.0136671 0.0158599 0.00545131 
[...]
POINT_DATA 67302
FIELD FieldData 3
id 1 67302 int
477 1205 832 10349 10147 574 371 533 10081 
10263 1347 10874 10264 38757 19539 39080 10016 29218 
19827 900 504 1108 353 10306 447 19954 735 
10346 1331 379 453 10195 10426 593 19625 10360 
10453 10155 863 9948 10285 10153 629 19685 575 
10424 9905 10290 10265 38592 10416 9875 29361 843 
9926 19855 19565 323 680 921 5297 731 2961 
3037 808 816 3331 1063 651 366 470 10080 
491 771 390 801 3801 3241 10183 2928 9940 
10355 10260 10022 702 916 452 2751 2919 10236 
794 902 10442 10353 745 678 331 19579 649 
10328 10279 9949 10395 519 1575 562 653 406 
1250 846 364 917 746 1577 965 351 865 
423 1373 48499 620 503 9958 20908 10719 688 
19470 20395 30028 944 567 342 459 858 325 
700 918 428 701 347 542 419 3493 541 
512 1559 469 1060 2995 848 589 908 601 
888 1418 871 536 3934 10732 558 705 10171 
1395 404 855 317 445 397 543 449 547 
873 790 706 3154 672 592 2760 3096 803 
344 923 424 611 9944 488 63 39119 38511 
57742 9938 10104 409 10159 29020 10459 29537 58095 
10058 10419 9880 19783 10019 358 58053 48564 10132 
19507 10026 10392 29315 10221 11098 48548 2755 10465 
411 19498 10015 10209 9895 48085 515 38654 39035 
38541 19542 39007 67157 58078 19670 10439 58228 739 
402 58064 737 48211 58198 57638 10313 10281 2914 
10467 781 10237 19702 3002 19585 38985 48463 38925 
9921 10445 10216 57953 29215 665 19844 61 10066 
12665 19532 9972 10446 29609 48232 29234 11061 19748 
10117 476 19818 840 29730 57950 39733 29180 48061 
1380 57709 1011 10422 377 48320 350 9882 48118 
67159 19722 29010 10908 19597 362 1500 334 671 
9955 336 1530 386 1181 639 564 621 10059 
581 10362 658 880 912 9925 2972 10102 1069 
10041 1486 1185 11040 2927 405 19828 841 3362 
10410 10876 10245 10320 10152 20163 546 10033 2803 
20427 1009 1940 10352 1212 392 682 3353 795 
1 354 775 10365 548 461 9889 10188 10274 
1392 10112 20005 394 29185 10343 38974 29159 10133 
57769 48539 57790 60280 62 38751 48531 48200 29337 
39114 58549 48405 58088 417 67196 57933 57755 19513 
58580 57910 57680 10107 11042 29179 58186 29274 57759 
48203 67164 57918 19785 19981 9990 58207 58023 48601 
57665 38980 58061 19469 48481 58487 57885 29380 48414 
58029 10287 19443 38790 67160 29259 20022 58282 38593 
58387 10010 57989 38567 29269 57895 57822 48169 48354 
48315 57815 29328 2982 58373 29031 10377 57864 29220 
19891 10500 19872 10289 9867 19892 1485 57635 38781 
19984 10130 58429 38894 687 38922 57898 30148 19848 
10276 57940 10400 48590 792 58197 57731 19959 29176 
19619 60385 29121 57698 57907 58065 29550 38961 57623 
57694 58424 28965 10711 58124 57749 48184 19591 426 
19476 714 10272 1547 691 9992 767 868 39122 
3043 11122 10393 58137 10716 10398 787 10345 870 
29487 10003 10358 1425 19435 1426 1562 10007 10071 
717 10065 39106 19814 645 10099 415 681 19937 
20197 10774 10420 48255 877 9912 10418 812 48358 
19961 837 656 3026 544 9893 561 19983 820 
9936 39065 48608 19499 679 495 10339 925 60 
38669 490 21956 29084 10043 9859 443 472 599 
19548 19858 57789 9898 58454 57644 57667 58200 57876 
60275 58208 58279 58542 57695 58239 58663 57691 57613 
57679 57615 57732 48609 48404 58026 57833 48172 60303 
48612 48654 48561 57688 61263 60046 60856 57874 57706 
58625 58536 48337 57900 57805 58358 61109 58010 57647 
38905 48309 39053 57818 60269 57866 58217 48317 39067 
60926 58219 60565 38679 57886 57668 57650 58052 57705 
58142 10148 60126 58098 38606 29143 58082 10202 573 
10291 19840 39094 112 57972 38956 60074 57948 29138 
39063 58210 38796 57875 31920 48243 58811 60576 10128 
38812 10443 57862 10462 111 57653 58131 48670 58493 
57617 58130 19759 67163 48327 61353 57905 57824 58039 
1366 48068 60114 439 38762 57839 3195 19644 11106 
9878 57808 58138 29323 9994 552 10228 953 57929 
819 893 10415 9998 57794 642 879 38728 370 
5458 864 373 389 2911 641 511 3108 10350 
895 387 422 418 2834 10206 19916 3415 11120 
58774 48399 58489 58786 58405 58420 58651 60118 48249 
51200 57955 60833 58749 57642 51584 51283 51746 57757 
51782 60701 48458 58103 58636 48655 48427 51310 49229 
40956 51233 49312 60750 49299 48976 50617 48637 49029 
58150 48362 39006 57782 57914 62251 60051 58163 58602 
60612 48313 48484 60645 57958 58540 58741 48158 48384 
10068 58025 58125 61221 58002 60911 61349 48248 48056 
60982 57631 58544 48624 48251 51449 58165 67210 57693 
60825 58195 50777 57669 60573 57710 58777 29249 48110 
58214 58004 48375 57751 57847 38551 598 29172 38756 
57797 58091 58144 60666 58043 58101 58167 57968 57961 
48252 57750 29157 58050 29058 57865 49237 58133 10127 
58689 57887 57858 57740 57673 58011 58449 58414 62055 
58193 58071 58271 58594 58134 58330 57687 58046 58257 
58275 48789 29392 154 38564 38691 57713 10460 10381 
10119 20161 29528 19629 57990 156 3324 747 41067 
49307 58604 49081 57844 57630 58055 57814 48076 60779 
48457 48360 51660 50838 51680 39363 51388 50934 51733 
39191 49261 61099 42141 51160 57946 48301 58074 61248 
51549 48462 48366 58199 48406 48058 51344 50514 41792 
48578 39230 41948 60745 48988 58552 42212 50740 39345 
51730 42278 51650 41840 61041 60711 57778 51624 48438 
48743 57657 51616 48223 57877 51579 57730 57923 48687 
57829 61337 51327 48186 48929 51723 50824 60494 50592 
51162 57781 58230 10464 57969 58576 61256 60704 61104 
60912 50958 60093 9981 58000 57652 50776 58161 58105 
48660 10000 57655 48297 58233 57880 50714 51206 57611 
60057 48218 60052 48629 57610 155 57828 58007 57928 
10310 57800 58005 60613 60120 57775 19784 48176 58377 
57743 9894 10005 48096 58158 57636 60085 57758 427 
10388 61120 19460 19917 60101 57727 58760 60773 58659 
57645 48533 60754 48925 58401 58428 49085 61342 58030 
67173 48626 58526 51359 48356 57856 57921 48296 48741 
28977 57748 58521 60323 61216 49176 58102 58455 49315 
49127 29437 48838 58080 19559 554 19709 19699 830 
57960 29242 19461 29153 57779 10223 19486 10484 9866 
10413 9881 29509 38609 19465 751 19804 1104 1088 
38998 10441 38932 10093 475 326 634 10053 38765 
791 29136 10250 703 2743 10468 569 823 10210 
401 458 10299 783 381 774 9967 614 530 
432 9961 911 920 692 758 10286 51611 48708 
51412 51339 48877 51214 51815 61339 61365 42099 41315 
39434 41435 51590 41940 51770 61381 48233 39682 48532 
48718 49038 41172 38677 41775 38619 41721 60972 39498 
51822 39061 48474 60953 48658 48489 38537 41389 50505 
51047 51111 50750 41718 51603 48141 38777 57632 51269 
39030 51186 38718 41626 42125 41736 41943 38817 41632 
42163 51361 38614 38726 38650 42153 51473 42270 50553 
58104 61138 48182 57720 60180 57867 48143 58028 58243 
57721 58066 51665 50574 58083 51247 41569 50947 57837 
48324 57841 51515 58044 50575 57672 19672 57831 50494 
57930 60399 48367 61091 51107 50822 50588 51594 57896 
48310 58016 58154 38979 29525 57926 41880 50941 48217 
50596 51071 42250 57817 61378 60170 60250 60891 38941 
57754 57935 58121 60336 60680 58015 58084 58047 58149 
38984 58090 60290 60744 57753 60663 60412 60053 60675 
60404 50526 58054 58018 57838 58206 29264 29132 38811 
60562 60853 57612 50722 48258 57816 58070 29209 57988 
57784 10211 48351 51082 60561 10430 38900 61137 50578 
60102 50522 61356 60919 57766 61017 57726 60468 60986 
50668 58211 58754 58744 19671 49100 58221 58151 58003 
48111 41874 58710 38943 58250 48081 60743 58184 48977 
49252 38924 57916 58843 48066 48565 57998 51671 48444 
58168 58756 51596 57913 48999 61361 61203 57996 48493 
58215 48106 39642 48811 48951 58758 58679 57663 38822 
48808 58595 57768 19637 19985 10493 29134 29247 48551 
29423 157 29569 1167 464 57762 58800 38590 1326 
58406 58599 38738 1014 38532 57774 57763 9951 29433 
48393 58116 57791 10354 11032 39120 380 19803 10469 
10440 339 416 29034 48569 57804 19576 29147 10363 
10387 10024 759 782 708 500 38573 58174 19572 
329 10187 609 38904 57995 60333 57964 29526 19682 
57963 58072 10123 39003 10121 839 19744 891 571 
48150 19569 20517 57806 60766 58132 39091 42162 42080 
60453 48527 50513 39726 41219 39450 39665 51599 39558 
61384 41244 39274 38797 41324 51689 38615 41539 49301 
38814 39414 41672 42046 38525 32445 38779 48350 48171 
49012 38996 49121 38736 42155 51536 39393 61163 32221 
41655 48108 42076 51329 50921 38716 48274 48260 38701 
39337 39305 41706 32494 51151 50783 48775 39615 38648 
41096 48435 39338 41903 51338 38674 41535 51441 41117 
39439 58626 57826 58008 57983 38813 50549 50851 50995 
38730 58719 58129 57722 58099 29343 51776 50857 50551 
58022 51084 50983 40974 41297 51684 51332 51639 57881 
60165 61386 58122 48287 49057 50720 61257 60960 50552 
41547 40962 51147 40965 41276 57942 38874 48643 38705 
41293 42281 39056 48664 41332 51126 51173 57671 50644 
48965 41457 41156 60849 51562 51598 29417 57736 67174 
60471 29566 60174 60887 39085 61224 58148 48087 60687 
51123 50704 60827 58212 48084 57664 10425 60610 19698 
48183 57725 51190 51393 50767 50814 48535 9964 50703 
57609 58156 60969 38892 57786 57899 40954 51132 48788 
48521 67162 51516 48147 51183 61338 58012 58180 39256 
58051 48137 48221 58040 58590 58063 19726 58379 49308 
48731 39019 51621 58825 57915 60794 58374 51833 39576 
61150 39321 39602 51774 49223 58771 58201 48692 48607 
57795 48175 58851 57980 61228 48781 58470 57842 51813 
60586 48547 42010 39297 51758 48928 61082 57882 48256 
57869 57920 49266 58375 48913 51234 48472 48226 51640 
60923 39163 48653 39140 49172 51170 38672 48714 57627 
58607 38642 39755 48577 60952 58838 39074 48553 58213 
20000 29503 57849 58006 29261 58123 48342 57608 57746 
57906 19947 29167 413 57761 67155 19822 57708 10173 
10259 10018 19484 58077 57744 689 29563 48439 19703 
48214 28999 9901 57787 648 58695 48706 57738 29444 
57883 38898 10458 10178 898 807 659 29156 12770 
646 514 213 526 29511 10156 10114 695 811 
38858 757 38775 48525 29682 48552 48483 38895 39593 
42093 41608 29019 41533 51326 41954 38889 41797 39246 
39636 51620 41893 51447 51365 31589 41808 42227 61075 
61021 51420 38838 51225 41941 49146 39583 38890 32647 
39459 42191 42193 41606 51532 41892 48956 39249 39027 
42138 48132 42284 38569 41317 39627 39270 39075 39616 
51245 60709 42276 42218 41911 48381 48606 38517 51427 
38933 48253 41198 48752 41691 41018 51528 48078 57618 
51519 39109 38706 50611 50557 41431 51088 48617 48508 
50728 61292 41183 51817 60898 41282 41563 41798 51750 
57773 58056 48359 60356 48573 48160 50868 50689 60357 
51043 48530 51081 51312 41418 41926 41030 41110 51106 
58554 57888 48119 51023 61154 48516 58416 48205 51311 
48185 50686 48148 61148 60511 42129 41562 41570 41730 
58141 57633 48614 41275 41997 58196 42182 40978 42200 
42169 48237 48179 61110 38628 51021 41572 50813 48394 
48114 51546 29090 48436 58136 48555 60455 57771 38746 
48314 57991 51501 61310 50872 51208 51402 60441 60213 
38711 19704 29431 29202 60995 38528 38675 51345 51832 
48140 50841 57917 49053 28989 19607 48600 58192 58203 
50642 60655 51370 58497 57981 50796 57607 19728 60705 
49235 61000 51024 51094 41079 51343 61309 38976 50625 
51728 61348 58172 50701 51099 51284 48220 50541 48793 
39765 48818 58541 57992 39397 58797 61223 48500 48853 
48705 51810 49165 48949 41650 38967 39371 49320 48486 
39134 39307 49099 48941 48385 49209 38577 38633 51152 
61226 39152 49064 51267 49060 39683 51610 38798 48572 
39763 39724 48231 58465 49120 48138 48496 48517 48497 
58263 48215 39585 39597 38752 61043 39139 39519 51279 
48109 57625 49013 61048 57843 48537 39047 48388 39528 
51198 38950 57956 58033 48524 58185 48408 57986 260 
19511 58031 38850 48901 38968 48639 48240 57717 10197 
48605 58014 58202 57697 58093 48477 57624 57846 29340 
10431 57832 39116 29116 616 38637 9919 38918 29370 
38559 831 862 48304 60352 38843 10405 48285 897 
29504 19927 29193 39012 29015 10006 29190 9918 10070 
10304 10177 10230 520 38653 38771 38982 48191 10204 
29505 10301 39083 825 368 637 29235 10057 10451 
310 508 9864 39556 38938 51618 60890 41568 41766 
30211 39604 41882 39410 39457 41674 41945 38589 42096 
42228 41937 32716 42188 29491 41917 51300 42272 42134 
41819 48428 29352 48352 29225 39719 39036 39680 42135 
32292 38740 38655 38514 38516 39661 51405 48259 38815 
39647 29306 31432 39500 29041 29715 31809 29941 28991 
32061 51308 38613 39004 39210 51336 39767 41168 32128 
51601 41026 41361 60903 41631 61171 29421 48098 48668 
50565 48151 50495 38552 41046 48347 48245 38696 41480 
41914 51113 50501 60957 48652 41910 51626 41591 41522 
32727 41971 50654 48502 50719 48495 48640 38949 48230 
38929 41235 42160 42197 38680 41309 41059 57658 48466 
48199 48445 48540 50662 41288 38873 51539 42251 48099 
57776 38556 58109 38832 48448 38646 39049 41576 48177 
41270 50798 41221 39112 48390 51585 51005 38693 41058 
51374 51752 51378 48409 57654 51039 48092 38816 38526 
39273 57788 50655 48776 41642 39099 58170 57777 57780 
50572 57701 48202 57813 57692 57851 61286 61366 60508 
51321 51033 41932 40999 51687 51818 41467 42079 29320 
38945 60528 29355 48273 60386 50840 51719 57982 51363 
58139 60593 57646 60622 50593 41473 50679 50542 51105 
50598 48560 60685 48134 57812 48589 60075 58619 41103 
48648 58190 60503 50908 50893 41504 38871 51046 41135 
40969 41265 41021 41421 41250 57660 57619 60238 48514 
57932 58177 58128 51799 60227 41964 48241 57973 38793 
58637 57745 48091 48443 49062 48661 48946 49068 61368 
39275 51716 48720 39367 39468 42114 39580 48153 48173 
49286 48991 48498 48505 48467 48207 39730 48518 39294 
51505 39301 61269 48488 49242 39244 60784 49070 61100 
48509 48975 38911 38882 48064 49002 51753 39202 49186 
38687 48973 39237 39716 38876 39550 39282 39462 41973 
48289 48364 48520 57756 48112 58049 48504 57970 38737 
38602 61227 48281 48967 48371 41307 48365 48329 38936 
39588 57682 48305 48316 50545 48234 57640 10277 48363 
57772 57626 49133 57703 57965 48644 10382 57834 57649 
19876 38886 58153 48344 29977 58058 48208 48263 58081 
60606 48451 57639 48376 48121 10298 57728 58120 29544 
48355 48454 57823 48630 48070 58204 57696 57857 58094 
38875 48247 57908 38660 58140 57724 49027 48386 48325 
48264 58112 58037 48562 58175 19932 10227 58205 29535 
48152 58009 704 19673 39433 19777 19831 10229 38509 
29050 292 10396 57909 744 29108 38714 29638 38773 
41909 39470 39016 41597 29785 29670 42116 30214 42030 
51426 60848 60866 42232 29055 31834 32160 32008 48225 
30073 38607 39748 28987 29383 31644 41679 39079 38755 
38987 38772 32159 39575 42229 29295 29105 29253 29558 
29310 38774 39545 38799 38522 29801 29396 39021 38719 
38542 29074 42183 38715 42190 51195 29552 29458 41688 
38951 38857 31828 51672 32217 31783 29857 38644 42052 
39098 50633 48542 39076 41518 48339 39024 40997 29664 
38681 38818 48331 41477 31425 41408 38630 41456 41982 
57820 38863 40943 38520 39031 31469 42068 41040 48610 
48065 38664 41184 48549 38764 29118 48275 50896 39107 
38803 38937 41843 41344 31427 51194 58160 39015 57686 
48576 38954 38782 38801 48425 38635 39069 41056 48528 
41061 38627 41524 48105 41579 29484 41279 51290 41383 
32236 51760 41729 48571 48478 41851 48222 50808 48156 
57670 38849 38530 38833 38977 42095 38868 41220 58135 
41363 48449 61125 57684 60138 50957 58048 50806 61073 
41593 41143 41850 51691 51745 42255 50510 48666 48189 
58020 60677 60449 57889 60259 50909 41073 51803 60516 
60216 58164 48611 40991 48636 50839 51419 41346 57868 
57967 48196 60331 60748 57714 41622 41295 48632 60192 
57892 57850 58528 50797 50521 50865 48089 41580 41498 
41594 42186 41871 58085 48512 48157 48062 58209 57902 
51119 38713 42022 50966 60249 57836 58110 38712 50693 
48163 41571 61018 48563 39517 39426 48426 48135 39521 
38913 48806 39488 48206 49014 48526 39355 39196 39328 
51260 51568 48195 48122 48407 39336 29587 48308 48437 
57674 49258 48604 39601 51313 39040 39413 39621 39495 
42000 39742 39407 51548 39666 58117 48322 48254 57945 
49071 48204 48379 38698 57801 39253 38804 39247 39102 
39698 39731 39285 30206 41629 51342 57835 48312 48566 
39002 51029 39766 39214 49158 38629 39653 29966 48759 
57656 49215 38601 48094 39721 29486 57884 48340 48395 
58019 48456 57985 57872 38953 57939 48598 48270 57666 
48558 58152 57947 57770 48597 48077 48368 57975 39005 
305 57861 57718 57733 48288 48319 19676 48216 48587 
48642 38931 57629 38787 48127 48485 48063 48416 48641 
48501 10140 57614 19860 10131 9897 60198 67195 29067 
29449 19979 10294 19522 58021 10158 10136 10039 19415 
38845 20003 29081 38999 57716 19695 19510 48269 48541 
10143 19714 10095 19974 10101 29160 57690 48146 19849 
19782 19821 19835 19900 29420 19686 28969 29414 38724 
29422 10391 10170 10452 57785 19537 19519 38802 19919 
19563 38800 19734 48242 19886 10218 19865 19600 48341 
29840 30138 38512 39087 38695 31623 51450 39090 29416 
38934 39644 39323 29481 60831 29299 29704 32308 41806 
41723 32629 29466 29710 32684 51220 38993 38794 39402 
38510 29545 30049 30126 42233 41931 41965 29109 41859 
29300 31475 48219 29513 38981 39239 39516 60934 32052 
30105 29762 38507 38840 29751 38734 39573 41748 29532 
51495 29985 38553 39359 60886 38571 30084 29650 51511 
38908 38841 42053 29470 38663 38549 51632 48277 48592 
60304 39089 41289 41127 48069 31781 41050 41132 29931 
41245 32535 42161 32502 51479 32634 48387 38585 48627 
48567 39010 48357 38568 41141 39042 38856 38626 41546 
31874 41049 32335 51638 41444 42170 41589 48279 39118 
48209 48057 48180 48582 39041 48415 41281 38634 38935 
41242 32367 48659 50639 38729 48574 48345 48591 38563 
41507 31927 29451 61057 39064 60869 51226 50556 40976 
38638 38620 38907 48662 31879 48125 48669 38668 48536 
50899 48093 29052 50603 60346 61266 48503 50608 58062 
41436 41011 51523 58159 48159 48282 41426 41452 51073 
39559 41356 51740 60883 58045 48424 50771 50528 41415 
60426 60381 60324 51489 41144 41047 41084 42002 60757 
58115 41471 48430 48235 48107 48372 57616 50967 38992 
41458 48267 50963 41463 50795 40989 41826 32666 50491 
41233 31712 42207 48100 48429 48546 48318 40950 60136 
48311 48506 51027 38879 41761 31399 50621 58038 60477 
51017 41353 50931 60487 41104 32486 48165 51333 48178 
48696 39262 39435 49275 39416 38673 39018 39617 39628 
60815 39452 39398 39372 39523 39250 51710 51212 48212 
39374 49119 48469 48825 39710 38545 38914 39464 39566 
48861 38624 38884 39188 51697 51662 39070 48193 51472 
39483 39050 39753 39720 39711 39595 39208 39676 39458 
29959 41815 49179 38885 48918 48410 48411 48090 48888 
39011 48667 51394 38610 48684 39600 38618 48302 39553 
48727 41277 39178 38986 48805 29793 38896 39034 48646 
39738 49129 49278 39220 29219 39093 48464 57993 38665 
57765 48602 48133 48490 48188 29284 58145 48420 38944 
57675 48097 48544 48487 58097 48413 48210 57971 48529 
48628 48596 48459 48419 48335 19663 29495 39117 29229 
38837 48635 38748 48079 48187 48130 48101 48389 48380 
29410 38745 48583 48213 48300 48671 48295 48559 57809 
48083 48095 48392 48239 48382 48422 57966 38621 38930 
38588 48126 38964 48332 28970 48585 48557 29163 48378 
38709 38791 48116 29224 48631 38725 48570 48554 38844 
38578 29331 38739 48616 48227 48086 48397 19431 19442 
48645 29520 57819 19881 19497 10403 19797 29155 19683 
29008 29204 57678 38915 38690 19602 19540 29425 48168 
19613 19915 29459 38533 48276 29330 48519 19944 19440 
29197 19903 39032 19679 29318 29514 19652 19802 19473 
19964 57854 19493 38750 29382 48154 48266 19809 29252 
57879 38920 29297 48257 19457 19859 39110 29069 28986 
39073 19866 38916 21969 20010 50634 19912 19826 19414 
19992 19496 29365 19586 19982 29426 29497 38957 19719 
21945 38928 29231 38753 38749 19490 19786 39092 19441 
28984 38827 20001 19503 29062 29534 29286 29275 32623 
29709 41854 41960 32103 51559 32165 30160 41886 29564 
31740 38550 38912 51301 38658 39351 29239 38580 42045 
29381 29101 29714 42180 30176 29158 29395 32152 29626 
32597 41665 31480 32279 29268 42205 32520 29354 29583 
28997 29407 29512 29765 32616 29312 29283 29022 41946 
41807 29027 29169 29045 29309 31858 29125 29865 29902 
31829 32296 32075 29473 29334 29263 29222 41628 28968 
29119 29344 41025 48123 38807 38632 38659 39045 29476 
42230 51270 51367 41342 50856 40948 38847 38881 48294 
39084 41128 38720 39025 38948 41255 41201 38846 32043 
32203 41554 32513 41052 38988 29212 32559 38946 60894 
39108 41470 48550 40971 39072 38826 29538 31458 39046 